
                                 *****************
                                 * O   R   C   A *
                                 *****************

           --- An Ab Initio, DFT and Semiempirical electronic structure package ---

                  #######################################################
                  #                        -***-                        #
                  #          Department of theory and spectroscopy      #
                  #               Directorship: Frank Neese             #
                  #        Max Planck Institute fuer Kohlenforschung    #
                  #                Kaiser Wilhelm Platz 1               #
                  #                 D-45470 Muelheim/Ruhr               #
                  #                      Germany                        #
                  #                                                     #
                  #                  All rights reserved                #
                  #                        -***-                        #
                  #######################################################


                         Program Version 4.1.2  - RELEASE  -


 With contributions from (in alphabetic order):
   Daniel Aravena         : Magnetic Properties
   Michael Atanasov       : Ab Initio Ligand Field Theory
   Alexander A. Auer      : GIAO ZORA
   Ute Becker             : Parallelization
   Giovanni Bistoni       : ED, Open-shell LED
   Martin Brehm           : Molecular dynamics
   Dmytro Bykov           : SCF Hessian
   Vijay G. Chilkuri      : MRCI spin determinant printing
   Dipayan Datta          : RHF DLPNO-CCSD density
   Achintya Kumar Dutta   : EOM-CC, STEOM-CC
   Dmitry Ganyushin       : Spin-Orbit,Spin-Spin,Magnetic field MRCI
   Miquel Garcia          : C-PCM Hessian
   Yang Guo               : DLPNO-NEVPT2, CIM, IAO-localization
   Andreas Hansen         : Spin unrestricted coupled pair/coupled cluster methods
   Benjamin Helmich-Paris : CASSCF linear response (MC-RPA)
   Lee Huntington         : MR-EOM, pCC
   Robert Izsak           : Overlap fitted RIJCOSX, COSX-SCS-MP3, EOM
   Christian Kollmar      : KDIIS, OOCD, Brueckner-CCSD(T), CCSD density
   Simone Kossmann        : Meta GGA functionals, TD-DFT gradient, OOMP2, MP2 Hessian
   Martin Krupicka        : AUTO-CI
   Lucas Lang             : DCDCAS
   Dagmar Lenk            : GEPOL surface, SMD
   Dimitrios Liakos       : Extrapolation schemes; parallel MDCI
   Dimitrios Manganas     : ROCIS; embedding schemes
   Dimitrios Pantazis     : SARC Basis sets
   Taras Petrenko         : DFT Hessian,TD-DFT gradient, ASA, ECA, R-Raman, ABS, FL, XAS/XES, NRVS
   Peter Pinski           : DLPNO-MP2, DLPNO-MP2 Gradient
   Christoph Reimann      : Effective Core Potentials
   Marius Retegan         : Local ZFS, SOC
   Christoph Riplinger    : Optimizer, TS searches, QM/MM, DLPNO-CCSD(T), (RO)-DLPNO pert. Triples
   Tobias Risthaus        : Range-separated hybrids, TD-DFT gradient, RPA, STAB
   Michael Roemelt        : Restricted open shell CIS
   Masaaki Saitow         : Open-shell DLPNO
   Barbara Sandhoefer     : DKH picture change effects
   Avijit Sen             : IP-ROCIS
   Kantharuban Sivalingam : CASSCF convergence, NEVPT2, FIC-MRCI
   Bernardo de Souza      : ESD, SOC TD-DFT
   Georgi Stoychev        : AutoAux, RI-MP2 NMR
   Willem Van den Heuvel  : Paramagnetic NMR
   Boris Wezisla          : Elementary symmetry handling
   Frank Wennmohs         : Technical directorship


 We gratefully acknowledge several colleagues who have allowed us to
 interface, adapt or use parts of their codes:
   Stefan Grimme, W. Hujo, H. Kruse,             : VdW corrections, initial TS optimization,
                  C. Bannwarth                     DFT functionals, gCP, sTDA/sTD-DF
   Ed Valeev                                     : LibInt (2-el integral package), F12 methods
   Garnet Chan, S. Sharma, J. Yang, R. Olivares  : DMRG
   Ulf Ekstrom                                   : XCFun DFT Library
   Mihaly Kallay                                 : mrcc  (arbitrary order and MRCC methods)
   Andreas Klamt, Michael Diedenhofen            : otool_cosmo (COSMO solvation model)
   Jiri Pittner, Ondrej Demel                    : Mk-CCSD
   Frank Weinhold                                : gennbo (NPA and NBO analysis)
   Christopher J. Cramer and Donald G. Truhlar   : smd solvation model
   Lars Goerigk                                  : TD-DFT with DH, B97 family of functionals
   V. Asgeirsson, H. Jonsson                     : NEB implementation
   FAccTs GmbH                                   : IRC, NEB, NEB-TS, Multilevel


 Your calculation uses the libint2 library for the computation of 2-el integrals
 For citations please refer to: http://libint.valeyev.net

 This ORCA versions uses:
   CBLAS   interface :  Fast vector & matrix operations
   LAPACKE interface :  Fast linear algebra routines
   SCALAPACK package :  Parallel linear algebra routines


----- Orbital basis set information -----
Your calculation utilizes the basis: def2-TZVP
   F. Weigend and R. Ahlrichs, Phys. Chem. Chem. Phys. 7, 3297 (2005).

----- AuxJ basis set information -----
Your calculation utilizes the auxiliary basis: def2/J
   F. Weigend, Phys. Chem. Chem. Phys. 8, 1057 (2006).

================================================================================
                                        WARNINGS
                       Please study these warnings very carefully!
================================================================================


WARNING: The environment variable RSH_COMMAND is not set!
  ===> : All Displacements for the Numerical Hessian calculation
         will be started on localhost

INFO   : the flag for use of LIBINT has been found!

================================================================================
                                       INPUT FILE
================================================================================
NAME = orca.inp
|  1> ! tightscf engrad pbe def2-TZVP Numfreq 
|  2> %pal nprocs 16 end 
|  3>  
|  4> *xyz 0 1 
|  5> C 1.89271128185181 -1.05419179009022 -0.00015272736093
|  6> C 2.15707694346286 0.31811646042833 -0.00030782196824
|  7> C 1.10924067683468 1.22566974007702 -0.0001400647627
|  8> C -0.19891889890503 0.75127710583881 0.00017186009379
|  9> C 0.58957575458896 -1.5384667402107 0.00017482613879
| 10> C -0.45300469778095 -0.62062033246942 0.00032982445915
| 11> C -1.42159804269724 1.57162528314641 0.00030560688562
| 12> C -2.63146576071734 0.67714660966465 0.00041807162759
| 13> H 2.71689965388642 -1.75645402788804 -0.00029075851018
| 14> H 3.18068916415964 0.66848585612276 -0.00056651290326
| 15> H 1.28065208115206 2.29479456391421 -0.00027066822822
| 16> H 0.39577166877983 -2.60352570546857 0.0002901055403
| 17> S -2.17115498595443 -1.022393876218 0.0007097983486
| 18> O -1.46797864621618 2.78596786775483 8.98533438e-05
| 19> C -3.86428664035018 1.21723215034857 0.00026557882978
| 20> C -5.18174179967452 0.6163646966056 0.00023832889518
| 21> C -5.42555792459805 -0.76707199588359 0.00015284936299
| 22> H -4.60564239171201 -1.46941755605291 8.485227116e-05
| 23> C -6.72177832413546 -1.25785713579258 8.293637805e-05
| 24> H -6.88727564063513 -2.32797041227394 5.488605e-08
| 25> C -7.80659474181924 -0.38676561614245 9.986526815e-05
| 26> H -8.81655482347733 -0.77632562453617 4.11194571e-05
| 27> C -7.58576379509636 0.9866301817917 0.0001785863264
| 28> H -8.42358479100916 1.67201582950035 0.00018186623748
| 29> C -6.29135020868369 1.47915387118115 0.00024204400748
| 30> H -6.12111008578313 2.54921904732604 0.00028752037267
| 31> H -3.84695502547083 2.30445154932615 0.0001130050034
| 32> *
| 33> 
| 34>                          ****END OF INPUT****
================================================================================

                     *******************************
                     * Energy+Gradient Calculation *
                     *******************************

---------------------------------
CARTESIAN COORDINATES (ANGSTROEM)
---------------------------------
  C      1.892711   -1.054192   -0.000153
  C      2.157077    0.318116   -0.000308
  C      1.109241    1.225670   -0.000140
  C     -0.198919    0.751277    0.000172
  C      0.589576   -1.538467    0.000175
  C     -0.453005   -0.620620    0.000330
  C     -1.421598    1.571625    0.000306
  C     -2.631466    0.677147    0.000418
  H      2.716900   -1.756454   -0.000291
  H      3.180689    0.668486   -0.000567
  H      1.280652    2.294795   -0.000271
  H      0.395772   -2.603526    0.000290
  S     -2.171155   -1.022394    0.000710
  O     -1.467979    2.785968    0.000090
  C     -3.864287    1.217232    0.000266
  C     -5.181742    0.616365    0.000238
  C     -5.425558   -0.767072    0.000153
  H     -4.605642   -1.469418    0.000085
  C     -6.721778   -1.257857    0.000083
  H     -6.887276   -2.327970    0.000000
  C     -7.806595   -0.386766    0.000100
  H     -8.816555   -0.776326    0.000041
  C     -7.585764    0.986630    0.000179
  H     -8.423585    1.672016    0.000182
  C     -6.291350    1.479154    0.000242
  H     -6.121110    2.549219    0.000288
  H     -3.846955    2.304452    0.000113

----------------------------
CARTESIAN COORDINATES (A.U.)
----------------------------
  NO LB      ZA    FRAG     MASS         X           Y           Z
   0 C     6.0000    0    12.011    3.576706   -1.992134   -0.000289
   1 C     6.0000    0    12.011    4.076285    0.601153   -0.000582
   2 C     6.0000    0    12.011    2.096161    2.316180   -0.000265
   3 C     6.0000    0    12.011   -0.375902    1.419708    0.000325
   4 C     6.0000    0    12.011    1.114137   -2.907281    0.000330
   5 C     6.0000    0    12.011   -0.856055   -1.172802    0.000623
   6 C     6.0000    0    12.011   -2.686431    2.969941    0.000578
   7 C     6.0000    0    12.011   -4.972750    1.279622    0.000790
   8 H     1.0000    0     1.008    5.134196   -3.319217   -0.000549
   9 H     1.0000    0     1.008    6.010631    1.263255   -0.001071
  10 H     1.0000    0     1.008    2.420082    4.336533   -0.000511
  11 H     1.0000    0     1.008    0.747900   -4.919951    0.000548
  12 S    16.0000    0    32.060   -4.102888   -1.932044    0.001341
  13 O     8.0000    0    15.999   -2.774078    5.264716    0.000170
  14 C     6.0000    0    12.011   -7.302443    2.300235    0.000502
  15 C     6.0000    0    12.011   -9.792073    1.164760    0.000450
  16 C     6.0000    0    12.011  -10.252819   -1.449556    0.000289
  17 H     1.0000    0     1.008   -8.703403   -2.776797    0.000160
  18 C     6.0000    0    12.011  -12.702320   -2.377006    0.000157
  19 H     1.0000    0     1.008  -13.015065   -4.399227    0.000000
  20 C     6.0000    0    12.011  -14.752326   -0.730881    0.000189
  21 H     1.0000    0     1.008  -16.660874   -1.467043    0.000078
  22 C     6.0000    0    12.011  -14.335016    1.864461    0.000337
  23 H     1.0000    0     1.008  -15.918268    3.159652    0.000344
  24 C     6.0000    0    12.011  -11.888929    2.795196    0.000457
  25 H     1.0000    0     1.008  -11.567222    4.817326    0.000543
  26 H     1.0000    0     1.008   -7.269691    4.354782    0.000214

--------------------------------
INTERNAL COORDINATES (ANGSTROEM)
--------------------------------
 C      0   0   0     0.000000000000     0.00000000     0.00000000
 C      1   0   0     1.397540397103     0.00000000     0.00000000
 C      2   1   0     1.386222862748   119.99247610     0.00000000
 C      3   2   1     1.391520730825   119.17073368     0.00000000
 C      1   2   3     1.390210249214   121.29027328     0.00000000
 C      5   1   2     1.389034215522   118.25437546     0.00000000
 C      4   3   2     1.472384270007   126.20790183   180.00372404
 C      7   4   3     1.504616896445   109.66440024   179.99058081
 H      1   2   3     1.082801340176   119.52910476   179.99967989
 H      2   1   3     1.081915319570   119.79947705   180.00046994
 H      3   2   1     1.082778728796   121.78789216   180.00108397
 H      5   1   2     1.082548214373   120.69923942   179.99984450
 S      8   7   4     1.760773681545   111.32158486     0.00000000
 O      7   4   3     1.215228011414   126.04665456     0.00000000
 C      8   7   4     1.345934521353   119.86605585   180.01394146
 C     15   8   7     1.448008906927   131.82542151   179.99569612
 C     16  15   8     1.404757414006   124.51200662     0.00000000
 H     17  16  15     1.079606767106   120.58846201     0.00000000
 C     17  16  15     1.386022143626   120.73319749   180.00237817
 H     19  17  16     1.082835071994   119.52943504   179.99893473
 C     19  17  16     1.391268161056   120.49799015     0.00000000
 H     21  19  17     1.082486198588   120.14351549   179.99976428
 C     21  19  17     1.391036423323   119.62943598     0.00000000
 H     23  21  19     1.082449771254   120.15062318   179.99935949
 C     23  21  19     1.384949862387   119.96630627     0.00000000
 H     25  23  21     1.083522580619   119.87140611   179.99903617
 H     15   8   7     1.087357544539   112.74442057     0.00000000

---------------------------
INTERNAL COORDINATES (A.U.)
---------------------------
 C      0   0   0     0.000000000000     0.00000000     0.00000000
 C      1   0   0     2.640968611616     0.00000000     0.00000000
 C      2   1   0     2.619581571174   119.99247610     0.00000000
 C      3   2   1     2.629593090933   119.17073368     0.00000000
 C      1   2   3     2.627116639585   121.29027328     0.00000000
 C      5   1   2     2.624894257983   118.25437546     0.00000000
 C      4   3   2     2.782403034207   126.20790183   180.00372404
 C      7   4   3     2.843313870752   109.66440024   179.99058081
 H      1   2   3     2.046197990375   119.52910476   179.99967989
 H      2   1   3     2.044523654081   119.79947705   180.00046994
 H      3   2   1     2.046155261059   121.78789216   180.00108397
 H      5   1   2     2.045719651930   120.69923942   179.99984450
 S      8   7   4     3.327380041936   111.32158486     0.00000000
 O      7   4   3     2.296448131843   126.04665456     0.00000000
 C      8   7   4     2.543447639547   119.86605585   180.01394146
 C     15   8   7     2.736340273571   131.82542151   179.99569612
 C     16  15   8     2.654606797067   124.51200662     0.00000000
 H     17  16  15     2.040161122158   120.58846201     0.00000000
 C     17  16  15     2.619202267003   120.73319749   180.00237817
 H     19  17  16     2.046261734273   119.52943504   179.99893473
 C     19  17  16     2.629115803241   120.49799015     0.00000000
 H     21  19  17     2.045602459081   120.14351549   179.99976428
 C     21  19  17     2.628677882389   119.62943598     0.00000000
 H     23  21  19     2.045533621396   120.15062318   179.99935949
 C     23  21  19     2.617175949124   119.96630627     0.00000000
 H     25  23  21     2.047560937290   119.87140611   179.99903617
 H     15   8   7     2.054807968832   112.74442057     0.00000000

---------------------
BASIS SET INFORMATION
---------------------
There are 4 groups of distinct atoms

 Group   1 Type C   : 11s6p2d1f contracted to 5s3p2d1f pattern {62111/411/11/1}
 Group   2 Type H   : 5s1p contracted to 3s1p pattern {311/1}
 Group   3 Type S   : 14s9p3d1f contracted to 5s5p2d1f pattern {73211/51111/21/1}
 Group   4 Type O   : 11s6p2d1f contracted to 5s3p2d1f pattern {62111/411/11/1}

Atom   0C    basis set group =>   1
Atom   1C    basis set group =>   1
Atom   2C    basis set group =>   1
Atom   3C    basis set group =>   1
Atom   4C    basis set group =>   1
Atom   5C    basis set group =>   1
Atom   6C    basis set group =>   1
Atom   7C    basis set group =>   1
Atom   8H    basis set group =>   2
Atom   9H    basis set group =>   2
Atom  10H    basis set group =>   2
Atom  11H    basis set group =>   2
Atom  12S    basis set group =>   3
Atom  13O    basis set group =>   4
Atom  14C    basis set group =>   1
Atom  15C    basis set group =>   1
Atom  16C    basis set group =>   1
Atom  17H    basis set group =>   2
Atom  18C    basis set group =>   1
Atom  19H    basis set group =>   2
Atom  20C    basis set group =>   1
Atom  21H    basis set group =>   2
Atom  22C    basis set group =>   1
Atom  23H    basis set group =>   2
Atom  24C    basis set group =>   1
Atom  25H    basis set group =>   2
Atom  26H    basis set group =>   2
-------------------------------
AUXILIARY BASIS SET INFORMATION
-------------------------------
There are 4 groups of distinct atoms

 Group   1 Type C   : 12s5p4d2f1g contracted to 6s4p3d1f1g pattern {711111/2111/211/2/1}
 Group   2 Type H   : 5s2p1d contracted to 3s1p1d pattern {311/2/1}
 Group   3 Type S   : 14s5p5d2f1g contracted to 8s4p3d1f1g pattern {71111111/2111/311/2/1}
 Group   4 Type O   : 12s5p4d2f1g contracted to 6s4p3d1f1g pattern {711111/2111/211/2/1}

Atom   0C    basis set group =>   1
Atom   1C    basis set group =>   1
Atom   2C    basis set group =>   1
Atom   3C    basis set group =>   1
Atom   4C    basis set group =>   1
Atom   5C    basis set group =>   1
Atom   6C    basis set group =>   1
Atom   7C    basis set group =>   1
Atom   8H    basis set group =>   2
Atom   9H    basis set group =>   2
Atom  10H    basis set group =>   2
Atom  11H    basis set group =>   2
Atom  12S    basis set group =>   3
Atom  13O    basis set group =>   4
Atom  14C    basis set group =>   1
Atom  15C    basis set group =>   1
Atom  16C    basis set group =>   1
Atom  17H    basis set group =>   2
Atom  18C    basis set group =>   1
Atom  19H    basis set group =>   2
Atom  20C    basis set group =>   1
Atom  21H    basis set group =>   2
Atom  22C    basis set group =>   1
Atom  23H    basis set group =>   2
Atom  24C    basis set group =>   1
Atom  25H    basis set group =>   2
Atom  26H    basis set group =>   2


           ************************************************************
           *        Program running with 16 parallel MPI-processes    *
           *              working on a common directory               *
           ************************************************************
------------------------------------------------------------------------------
                           ORCA GTO INTEGRAL CALCULATION
                           -- RI-GTO INTEGRALS CHOSEN --
------------------------------------------------------------------------------

                         BASIS SET STATISTICS AND STARTUP INFO

Gaussian basis set:
 # of primitive gaussian shells          ...  407
 # of primitive gaussian functions       ...  879
 # of contracted shells                  ...  229
 # of contracted basis functions         ...  593
 Highest angular momentum                ...    3
 Maximum contraction depth               ...    7
Auxiliary gaussian basis set:
 # of primitive gaussian shells          ...  491
 # of primitive gaussian functions       ... 1357
 # of contracted shells                  ...  307
 # of contracted aux-basis functions     ...  945
 Highest angular momentum                ...    4
 Maximum contraction depth               ...    7
Ratio of auxiliary to basis functions    ...  1.59
Integral package used                  ... LIBINT
 One Electron integrals                  ... done
 Ordering auxiliary basis shells         ... done
 Integral threshhold             Thresh  ...  2.500e-11
 Primitive cut-off               TCut    ...  2.500e-12
 Pre-screening matrix                    ... done
 Shell pair data                         ... 
 Ordering of the shell pairs             ... done (   0.006 sec) 19214 of 26335 pairs
 Determination of significant pairs      ... done (   0.000 sec)
 Creation of shell pair data             ... done (   0.004 sec)
 Storage of shell pair data              ... done (   0.096 sec)
 Shell pair data done in (   0.106 sec)
 Computing two index integrals           ... done
 Cholesky decomposition of the V-matrix  ... done


Timings:
 Total evaluation time                   ...   1.740 sec (  0.029 min)
 One electron matrix time                ...   0.375 sec (  0.006 min) = 21.5%
 Schwartz matrix evaluation time         ...   0.684 sec (  0.011 min) = 39.3%
 Two index repulsion integral time       ...   0.159 sec (  0.003 min) =  9.2%
 Cholesky decomposition of V             ...   0.374 sec (  0.006 min) = 21.5%
 Three index repulsion integral time     ...   0.000 sec (  0.000 min) =  0.0%



           ************************************************************
           *        Program running with 16 parallel MPI-processes    *
           *              working on a common directory               *
           ************************************************************
-------------------------------------------------------------------------------
                                 ORCA SCF
-------------------------------------------------------------------------------

------------
SCF SETTINGS
------------
Hamiltonian:
 Density Functional     Method          .... DFT(GTOs)
 Exchange Functional    Exchange        .... PBE
   PBE kappa parameter   XKappa         ....  0.804000
   PBE mue parameter    XMuePBE         ....  0.219520
 Correlation Functional Correlation     .... PBE
   PBE beta parameter  CBetaPBE         ....  0.066725
 LDA part of GGA corr.  LDAOpt          .... PW91-LDA
 Gradients option       PostSCFGGA      .... off
   Density functional embedding theory  .... OFF
   NL short-range parameter             ....  6.400000
 RI-approximation to the Coulomb term is turned on
   Number of auxiliary basis functions  .... 945


General Settings:
 Integral files         IntName         .... orca
 Hartree-Fock type      HFTyp           .... RHF
 Total Charge           Charge          ....    0
 Multiplicity           Mult            ....    1
 Number of Electrons    NEL             ....  124
 Basis Dimension        Dim             ....  593
 Nuclear Repulsion      ENuc            ....   1155.2055092430 Eh

Convergence Acceleration:
 DIIS                   CNVDIIS         .... on
   Start iteration      DIISMaxIt       ....    12
   Startup error        DIISStart       ....  0.200000
   # of expansion vecs  DIISMaxEq       ....     5
   Bias factor          DIISBfac        ....   1.050
   Max. coefficient     DIISMaxC        ....  10.000
 Newton-Raphson         CNVNR           .... off
 SOSCF                  CNVSOSCF        .... on
   Start iteration      SOSCFMaxIt      ....   150
   Startup grad/error   SOSCFStart      ....  0.003300
 Level Shifting         CNVShift        .... on
   Level shift para.    LevelShift      ....    0.2500
   Turn off err/grad.   ShiftErr        ....    0.0010
 Zerner damping         CNVZerner       .... off
 Static damping         CNVDamp         .... on
   Fraction old density DampFac         ....    0.7000
   Max. Damping (<1)    DampMax         ....    0.9800
   Min. Damping (>=0)   DampMin         ....    0.0000
   Turn off err/grad.   DampErr         ....    0.1000
 Fernandez-Rico         CNVRico         .... off

SCF Procedure:
 Maximum # iterations   MaxIter         ....   125
 SCF integral mode      SCFMode         .... Direct
   Integral package                     .... LIBINT
 Reset frequency        DirectResetFreq ....    20
 Integral Threshold     Thresh          ....  2.500e-11 Eh
 Primitive CutOff       TCut            ....  2.500e-12 Eh

Convergence Tolerance:
 Convergence Check Mode ConvCheckMode   .... Total+1el-Energy
 Convergence forced     ConvForced      .... 0
 Energy Change          TolE            ....  1.000e-08 Eh
 1-El. energy change                    ....  1.000e-05 Eh
 Orbital Gradient       TolG            ....  1.000e-05
 Orbital Rotation angle TolX            ....  1.000e-05
 DIIS Error             TolErr          ....  5.000e-07


Diagonalization of the overlap matrix:
Smallest eigenvalue                        ... 7.207e-06
Time for diagonalization                   ...    0.511 sec
Threshold for overlap eigenvalues          ... 1.000e-08
Number of eigenvalues below threshold      ... 0
Time for construction of square roots      ...    0.138 sec
Total time needed                          ...    0.651 sec

-------------------
DFT GRID GENERATION
-------------------

General Integration Accuracy     IntAcc      ...  4.340
Radial Grid Type                 RadialGrid  ... Gauss-Chebyshev
Angular Grid (max. acc.)         AngularGrid ... Lebedev-110
Angular grid pruning method      GridPruning ... 3 (G Style)
Weight generation scheme         WeightScheme... Becke
Basis function cutoff            BFCut       ...    1.0000e-11
Integration weight cutoff        WCut        ...    1.0000e-14
Grids for H and He will be reduced by one unit

# of grid points (after initial pruning)     ...  36302 (   0.0 sec)
# of grid points (after weights+screening)   ...  33082 (   0.0 sec)
nearest neighbour list constructed           ...    0.0 sec
Grid point re-assignment to atoms done       ...    0.0 sec
Grid point division into batches done        ...    0.1 sec
Reduced shell lists constructed in    0.1 sec

Total number of grid points                  ...    33082
Total number of batches                      ...      529
Average number of points per batch           ...       62
Average number of grid points per atom       ...     1225
Average number of shells per batch           ...   104.54 (45.65%)
Average number of basis functions per batch  ...   274.60 (46.31%)
Average number of large shells per batch     ...    76.49 (73.16%)
Average number of large basis fcns per batch ...   205.86 (74.97%)
Maximum spatial batch extension              ...   3.84,  3.14, 38.86 au
Average spatial batch extension              ...   0.13,  0.12,  0.30 au

Time for grid setup =    0.758 sec

------------------------------
INITIAL GUESS: MODEL POTENTIAL
------------------------------
Loading Hartree-Fock densities                     ... done
Calculating cut-offs                               ... done
Setting up the integral package                    ... done
Initializing the effective Hamiltonian             ... done
Starting the Coulomb interaction                   ... done (   0.1 sec)
Reading the grid                                   ... done
Mapping shells                                     ... done
Starting the XC term evaluation                    ... done (   0.2 sec)
  promolecular density results
     # of electrons  =    124.020684076
     EX              =   -112.740497502
     EC              =     -4.241964992
     EX+EC           =   -116.982462494
Transforming the Hamiltonian                       ... done (   0.1 sec)
Diagonalizing the Hamiltonian                      ... done (   0.2 sec)
Back transforming the eigenvectors                 ... done (   0.0 sec)
Now organizing SCF variables                       ... done
                      ------------------
                      INITIAL GUESS DONE (   1.7 sec)
                      ------------------
--------------
SCF ITERATIONS
--------------
ITER       Energy         Delta-E        Max-DP      RMS-DP      [F,P]     Damp
               ***  Starting incremental Fock matrix formation  ***
  0  -1049.9512531633   0.000000000000 0.51027199  0.00228566  0.2547034 0.7000
  1  -1050.1311926367  -0.179939473418 0.38116644  0.00171008  0.0697235 0.7000
                               ***Turning on DIIS***
  2  -1050.1865983321  -0.055405695423 0.21774360  0.00165814  0.0333948 0.0000
  3  -1050.2791066804  -0.092508348276 0.34688402  0.00146887  0.0438153 0.0000
  4  -1050.3044812793  -0.025374598868 0.03585694  0.00028395  0.0369943 0.0000
  5  -1050.3074348025  -0.002953523210 0.03676934  0.00020057  0.0118799 0.0000
                      *** Initiating the SOSCF procedure ***
                           *** Shutting down DIIS ***
                      *** Re-Reading the Fockian *** 
                      *** Removing any level shift *** 
ITER      Energy       Delta-E        Grad      Rot      Max-DP    RMS-DP
  6  -1050.30774240  -0.0003075960  0.000490  0.000490  0.006387  0.000068
               *** Restarting incremental Fock matrix formation ***
  7  -1050.30776157  -0.0000191671  0.000241  0.001310  0.003276  0.000043
  8  -1050.30774872   0.0000128413  0.000655  0.001422  0.002145  0.000014
  9  -1050.30776609  -0.0000173656  0.000084  0.000767  0.000927  0.000010
 10  -1050.30776445   0.0000016417  0.000200  0.000381  0.000625  0.000005
 11  -1050.30776661  -0.0000021609  0.000044  0.000228  0.001228  0.000006
 12  -1050.30776632   0.0000002872  0.000079  0.000146  0.000960  0.000004
 13  -1050.30776668  -0.0000003569  0.000012  0.000085  0.000108  0.000001
 14  -1050.30776667   0.0000000079  0.000024  0.000100  0.000160  0.000001
 15  -1050.30776669  -0.0000000239  0.000015  0.000123  0.000353  0.000002
 16  -1050.30776666   0.0000000325  0.000021  0.000072  0.000267  0.000001
                  ***Gradient check signals convergence***
              ***Rediagonalizing the Fockian in SOSCF/NRSCF***

               *****************************************************
               *                     SUCCESS                       *
               *           SCF CONVERGED AFTER  17 CYCLES          *
               *****************************************************

Setting up the final grid:

General Integration Accuracy     IntAcc      ...  4.670
Radial Grid Type                 RadialGrid  ... Gauss-Chebyshev
Angular Grid (max. acc.)         AngularGrid ... Lebedev-302
Angular grid pruning method      GridPruning ... 3 (G Style)
Weight generation scheme         WeightScheme... Becke
Basis function cutoff            BFCut       ...    1.0000e-11
Integration weight cutoff        WCut        ...    1.0000e-14
Grids for H and He will be reduced by one unit

# of grid points (after initial pruning)     ... 140178 (   0.0 sec)
# of grid points (after weights+screening)   ... 125538 (   0.2 sec)
nearest neighbour list constructed           ...    0.0 sec
Grid point re-assignment to atoms done       ...    0.0 sec
Grid point division into batches done        ...    0.9 sec
Reduced shell lists constructed in    1.2 sec

Total number of grid points                  ...   125538
Total number of batches                      ...     1976
Average number of points per batch           ...       63
Average number of grid points per atom       ...     4650
Average number of shells per batch           ...    99.14 (43.29%)
Average number of basis functions per batch  ...   260.38 (43.91%)
Average number of large shells per batch     ...    71.36 (71.98%)
Average number of large basis fcns per batch ...   190.48 (73.16%)
Maximum spatial batch extension              ...   3.55,  3.61, 23.20 au
Average spatial batch extension              ...   0.08,  0.08,  0.13 au

Final grid set up in    2.2 sec
Final integration                            ... done (   1.1 sec)
Change in XC energy                          ...     0.001655402
Integrated number of electrons               ...   123.999707051
Previous integrated no of electrons          ...   124.018880876

----------------
TOTAL SCF ENERGY
----------------

Total Energy       :        -1050.30611129 Eh          -28580.28228 eV

Components:
Nuclear Repulsion  :         1155.20550924 Eh           31434.74002 eV
Electronic Energy  :        -2205.51162053 Eh          -60015.02230 eV
One Electron Energy:        -3727.64548962 Eh         -101434.39060 eV
Two Electron Energy:         1522.13386909 Eh           41419.36830 eV

Virial components:
Potential Energy   :        -2097.37020761 Eh          -57072.34485 eV
Kinetic Energy     :         1047.06409632 Eh           28492.06257 eV
Virial Ratio       :            2.00309629


DFT components:
N(Alpha)           :       61.999853525624 electrons
N(Beta)            :       61.999853525624 electrons
N(Total)           :      123.999707051248 electrons
E(X)               :     -114.317294845013 Eh       
E(C)               :       -4.238706560547 Eh       
E(XC)              :     -118.556001405560 Eh       
DFET-embed. en.    :        0.000000000000 Eh       

---------------
SCF CONVERGENCE
---------------

  Last Energy change         ...   -3.0594e-08  Tolerance :   1.0000e-08
  Last MAX-Density change    ...    5.7058e-05  Tolerance :   1.0000e-07
  Last RMS-Density change    ...    4.2449e-07  Tolerance :   5.0000e-09
  Last Orbital Gradient      ...    1.7625e-06  Tolerance :   1.0000e-05
  Last Orbital Rotation      ...    8.7868e-06  Tolerance :   1.0000e-05

             **** THE GBW FILE WAS UPDATED (orca.gbw) ****
             **** DENSITY FILE WAS UPDATED (orca.scfp.tmp) ****
             **** ENERGY FILE WAS UPDATED (orca.en.tmp) ****
----------------
ORBITAL ENERGIES
----------------

  NO   OCC          E(Eh)            E(eV) 
   0   2.0000     -88.075559     -2396.6578 
   1   2.0000     -18.736845      -509.8555 
   2   2.0000      -9.967992      -271.2429 
   3   2.0000      -9.935639      -270.3625 
   4   2.0000      -9.928663      -270.1727 
   5   2.0000      -9.911996      -269.7191 
   6   2.0000      -9.908417      -269.6217 
   7   2.0000      -9.907164      -269.5876 
   8   2.0000      -9.906249      -269.5627 
   9   2.0000      -9.903860      -269.4977 
  10   2.0000      -9.902756      -269.4677 
  11   2.0000      -9.899278      -269.3730 
  12   2.0000      -9.899201      -269.3710 
  13   2.0000      -9.899053      -269.3669 
  14   2.0000      -9.898631      -269.3554 
  15   2.0000      -9.897760      -269.3317 
  16   2.0000      -9.897044      -269.3123 
  17   2.0000      -7.700435      -209.5395 
  18   2.0000      -5.721707      -155.6956 
  19   2.0000      -5.717873      -155.5912 
  20   2.0000      -5.713294      -155.4666 
  21   2.0000      -0.954660       -25.9776 
  22   2.0000      -0.820774       -22.3344 
  23   2.0000      -0.799610       -21.7585 
  24   2.0000      -0.769215       -20.9314 
  25   2.0000      -0.725792       -19.7498 
  26   2.0000      -0.704371       -19.1669 
  27   2.0000      -0.691120       -18.8063 
  28   2.0000      -0.681157       -18.5352 
  29   2.0000      -0.647920       -17.6308 
  30   2.0000      -0.612508       -16.6672 
  31   2.0000      -0.569680       -15.5018 
  32   2.0000      -0.559717       -15.2307 
  33   2.0000      -0.548946       -14.9376 
  34   2.0000      -0.525777       -14.3071 
  35   2.0000      -0.501037       -13.6339 
  36   2.0000      -0.473334       -12.8801 
  37   2.0000      -0.450083       -12.2474 
  38   2.0000      -0.438891       -11.9428 
  39   2.0000      -0.434481       -11.8228 
  40   2.0000      -0.417994       -11.3742 
  41   2.0000      -0.406416       -11.0591 
  42   2.0000      -0.401880       -10.9357 
  43   2.0000      -0.393765       -10.7149 
  44   2.0000      -0.388459       -10.5705 
  45   2.0000      -0.380923       -10.3654 
  46   2.0000      -0.379327       -10.3220 
  47   2.0000      -0.368272       -10.0212 
  48   2.0000      -0.355045        -9.6613 
  49   2.0000      -0.340892        -9.2761 
  50   2.0000      -0.332968        -9.0605 
  51   2.0000      -0.330249        -8.9865 
  52   2.0000      -0.319677        -8.6988 
  53   2.0000      -0.310535        -8.4501 
  54   2.0000      -0.306914        -8.3516 
  55   2.0000      -0.302807        -8.2398 
  56   2.0000      -0.276463        -7.5229 
  57   2.0000      -0.249046        -6.7769 
  58   2.0000      -0.244966        -6.6659 
  59   2.0000      -0.234569        -6.3829 
  60   2.0000      -0.217181        -5.9098 
  61   2.0000      -0.195898        -5.3306 
  62   0.0000      -0.120773        -3.2864 
  63   0.0000      -0.064604        -1.7580 
  64   0.0000      -0.055737        -1.5167 
  65   0.0000      -0.050882        -1.3846 
  66   0.0000      -0.025566        -0.6957 
  67   0.0000      -0.014830        -0.4035 
  68   0.0000       0.018599         0.5061 
  69   0.0000       0.030538         0.8310 
  70   0.0000       0.030914         0.8412 
  71   0.0000       0.043687         1.1888 
  72   0.0000       0.048343         1.3155 
  73   0.0000       0.058475         1.5912 
  74   0.0000       0.065429         1.7804 
  75   0.0000       0.073052         1.9878 
  76   0.0000       0.078111         2.1255 
  77   0.0000       0.087473         2.3803 
  78   0.0000       0.088895         2.4190 
  79   0.0000       0.096413         2.6235 
  80   0.0000       0.099222         2.7000 
  81   0.0000       0.103629         2.8199 
  82   0.0000       0.109604         2.9825 
  83   0.0000       0.119963         3.2644 
  84   0.0000       0.135891         3.6978 
  85   0.0000       0.149187         4.0596 
  86   0.0000       0.162608         4.4248 
  87   0.0000       0.166752         4.5375 
  88   0.0000       0.166809         4.5391 
  89   0.0000       0.171292         4.6611 
  90   0.0000       0.171667         4.6713 
  91   0.0000       0.178549         4.8586 
  92   0.0000       0.185541         5.0488 
  93   0.0000       0.188376         5.1260 
  94   0.0000       0.196739         5.3535 
  95   0.0000       0.198804         5.4097 
  96   0.0000       0.201662         5.4875 
  97   0.0000       0.208762         5.6807 
  98   0.0000       0.212032         5.7697 
  99   0.0000       0.215220         5.8564 
 100   0.0000       0.218457         5.9445 
 101   0.0000       0.220588         6.0025 
 102   0.0000       0.229926         6.2566 
 103   0.0000       0.239938         6.5290 
 104   0.0000       0.242886         6.6093 
 105   0.0000       0.247746         6.7415 
 106   0.0000       0.255685         6.9575 
 107   0.0000       0.261056         7.1037 
 108   0.0000       0.263495         7.1701 
 109   0.0000       0.265447         7.2232 
 110   0.0000       0.269864         7.3434 
 111   0.0000       0.278165         7.5692 
 112   0.0000       0.288073         7.8389 
 113   0.0000       0.289256         7.8711 
 114   0.0000       0.293925         7.9981 
 115   0.0000       0.301604         8.2071 
 116   0.0000       0.304224         8.2784 
 117   0.0000       0.313757         8.5378 
 118   0.0000       0.315329         8.5805 
 119   0.0000       0.323942         8.8149 
 120   0.0000       0.330131         8.9833 
 121   0.0000       0.336951         9.1689 
 122   0.0000       0.344235         9.3671 
 123   0.0000       0.347384         9.4528 
 124   0.0000       0.354478         9.6458 
 125   0.0000       0.354639         9.6502 
 126   0.0000       0.362336         9.8597 
 127   0.0000       0.368470        10.0266 
 128   0.0000       0.371510        10.1093 
 129   0.0000       0.377069        10.2606 
 130   0.0000       0.377548        10.2736 
 131   0.0000       0.381954        10.3935 
 132   0.0000       0.390467        10.6252 
 133   0.0000       0.392750        10.6873 
 134   0.0000       0.401978        10.9384 
 135   0.0000       0.414620        11.2824 
 136   0.0000       0.416009        11.3202 
 137   0.0000       0.426696        11.6110 
 138   0.0000       0.433410        11.7937 
 139   0.0000       0.433580        11.7983 
 140   0.0000       0.439306        11.9541 
 141   0.0000       0.445577        12.1248 
 142   0.0000       0.446086        12.1386 
 143   0.0000       0.448781        12.2120 
 144   0.0000       0.455595        12.3974 
 145   0.0000       0.464941        12.6517 
 146   0.0000       0.468333        12.7440 
 147   0.0000       0.479593        13.0504 
 148   0.0000       0.487444        13.2640 
 149   0.0000       0.497010        13.5243 
 150   0.0000       0.512508        13.9461 
 151   0.0000       0.518312        14.1040 
 152   0.0000       0.520826        14.1724 
 153   0.0000       0.533953        14.5296 
 154   0.0000       0.540902        14.7187 
 155   0.0000       0.546876        14.8812 
 156   0.0000       0.556006        15.1297 
 157   0.0000       0.571909        15.5624 
 158   0.0000       0.589768        16.0484 
 159   0.0000       0.591593        16.0981 
 160   0.0000       0.598214        16.2782 
 161   0.0000       0.606201        16.4956 
 162   0.0000       0.616267        16.7695 
 163   0.0000       0.618521        16.8308 
 164   0.0000       0.624314        16.9885 
 165   0.0000       0.626949        17.0601 
 166   0.0000       0.630254        17.1501 
 167   0.0000       0.636835        17.3292 
 168   0.0000       0.641555        17.4576 
 169   0.0000       0.646525        17.5928 
 170   0.0000       0.653872        17.7928 
 171   0.0000       0.665244        18.1022 
 172   0.0000       0.683860        18.6088 
 173   0.0000       0.684190        18.6178 
 174   0.0000       0.685990        18.6667 
 175   0.0000       0.687991        18.7212 
 176   0.0000       0.691946        18.8288 
 177   0.0000       0.707418        19.2498 
 178   0.0000       0.721872        19.6431 
 179   0.0000       0.722051        19.6480 
 180   0.0000       0.728402        19.8208 
 181   0.0000       0.734217        19.9791 
 182   0.0000       0.743636        20.2354 
 183   0.0000       0.754337        20.5265 
 184   0.0000       0.754502        20.5310 
 185   0.0000       0.760532        20.6951 
 186   0.0000       0.766299        20.8520 
 187   0.0000       0.777794        21.1649 
 188   0.0000       0.792072        21.5534 
 189   0.0000       0.810718        22.0607 
 190   0.0000       0.818730        22.2788 
 191   0.0000       0.825841        22.4723 
 192   0.0000       0.832637        22.6572 
 193   0.0000       0.838324        22.8120 
 194   0.0000       0.843905        22.9638 
 195   0.0000       0.845825        23.0161 
 196   0.0000       0.853229        23.2175 
 197   0.0000       0.861670        23.4472 
 198   0.0000       0.872655        23.7462 
 199   0.0000       0.892406        24.2836 
 200   0.0000       0.894732        24.3469 
 201   0.0000       0.904053        24.6005 
 202   0.0000       0.909103        24.7379 
 203   0.0000       0.926525        25.2120 
 204   0.0000       0.939574        25.5671 
 205   0.0000       0.947606        25.7857 
 206   0.0000       0.960369        26.1330 
 207   0.0000       0.969887        26.3920 
 208   0.0000       0.987716        26.8771 
 209   0.0000       0.998702        27.1761 
 210   0.0000       1.002133        27.2694 
 211   0.0000       1.012327        27.5468 
 212   0.0000       1.016428        27.6584 
 213   0.0000       1.034086        28.1389 
 214   0.0000       1.040000        28.2998 
 215   0.0000       1.047043        28.4915 
 216   0.0000       1.056339        28.7444 
 217   0.0000       1.060659        28.8620 
 218   0.0000       1.079715        29.3805 
 219   0.0000       1.087128        29.5822 
 220   0.0000       1.128174        30.6992 
 221   0.0000       1.132875        30.8271 
 222   0.0000       1.136061        30.9138 
 223   0.0000       1.143628        31.1197 
 224   0.0000       1.153894        31.3990 
 225   0.0000       1.161068        31.5943 
 226   0.0000       1.164839        31.6969 
 227   0.0000       1.169530        31.8245 
 228   0.0000       1.174864        31.9697 
 229   0.0000       1.176004        32.0007 
 230   0.0000       1.195700        32.5367 
 231   0.0000       1.208230        32.8776 
 232   0.0000       1.210942        32.9514 
 233   0.0000       1.213367        33.0174 
 234   0.0000       1.218059        33.1451 
 235   0.0000       1.228962        33.4418 
 236   0.0000       1.237138        33.6642 
 237   0.0000       1.254062        34.1248 
 238   0.0000       1.265145        34.4263 
 239   0.0000       1.268040        34.5051 
 240   0.0000       1.277737        34.7690 
 241   0.0000       1.282455        34.8974 
 242   0.0000       1.306906        35.5627 
 243   0.0000       1.311505        35.6879 
 244   0.0000       1.326574        36.0979 
 245   0.0000       1.340542        36.4780 
 246   0.0000       1.340876        36.4871 
 247   0.0000       1.362123        37.0653 
 248   0.0000       1.375464        37.4283 
 249   0.0000       1.383348        37.6428 
 250   0.0000       1.392042        37.8794 
 251   0.0000       1.393213        37.9112 
 252   0.0000       1.403983        38.2043 
 253   0.0000       1.405604        38.2484 
 254   0.0000       1.416645        38.5489 
 255   0.0000       1.418127        38.5892 
 256   0.0000       1.438838        39.1528 
 257   0.0000       1.453663        39.5562 
 258   0.0000       1.460042        39.7298 
 259   0.0000       1.474842        40.1325 
 260   0.0000       1.475597        40.1530 
 261   0.0000       1.477463        40.2038 
 262   0.0000       1.481096        40.3027 
 263   0.0000       1.482281        40.3349 
 264   0.0000       1.511576        41.1321 
 265   0.0000       1.520410        41.3725 
 266   0.0000       1.525457        41.5098 
 267   0.0000       1.537185        41.8289 
 268   0.0000       1.540819        41.9278 
 269   0.0000       1.548582        42.1390 
 270   0.0000       1.552394        42.2428 
 271   0.0000       1.565809        42.6078 
 272   0.0000       1.578707        42.9588 
 273   0.0000       1.587123        43.1878 
 274   0.0000       1.593923        43.3729 
 275   0.0000       1.609985        43.8099 
 276   0.0000       1.610861        43.8338 
 277   0.0000       1.612400        43.8756 
 278   0.0000       1.619961        44.0814 
 279   0.0000       1.623530        44.1785 
 280   0.0000       1.630424        44.3661 
 281   0.0000       1.633561        44.4515 
 282   0.0000       1.640290        44.6346 
 283   0.0000       1.654054        45.0091 
 284   0.0000       1.664194        45.2850 
 285   0.0000       1.675885        45.6031 
 286   0.0000       1.689829        45.9826 
 287   0.0000       1.737689        47.2849 
 288   0.0000       1.744421        47.4681 
 289   0.0000       1.751235        47.6535 
 290   0.0000       1.756558        47.7984 
 291   0.0000       1.771162        48.1958 
 292   0.0000       1.775928        48.3255 
 293   0.0000       1.785695        48.5912 
 294   0.0000       1.804882        49.1133 
 295   0.0000       1.807711        49.1903 
 296   0.0000       1.819879        49.5214 
 297   0.0000       1.837413        49.9986 
 298   0.0000       1.851325        50.3771 
 299   0.0000       1.853723        50.4424 
 300   0.0000       1.859826        50.6084 
 301   0.0000       1.879584        51.1461 
 302   0.0000       1.900913        51.7265 
 303   0.0000       1.901207        51.7345 
 304   0.0000       1.908792        51.9409 
 305   0.0000       1.931652        52.5629 
 306   0.0000       1.933396        52.6104 
 307   0.0000       1.948878        53.0317 
 308   0.0000       1.975265        53.7497 
 309   0.0000       1.978319        53.8328 
 310   0.0000       1.989865        54.1470 
 311   0.0000       1.997986        54.3680 
 312   0.0000       2.006196        54.5914 
 313   0.0000       2.018981        54.9393 
 314   0.0000       2.030614        55.2558 
 315   0.0000       2.036880        55.4263 
 316   0.0000       2.039256        55.4910 
 317   0.0000       2.041229        55.5447 
 318   0.0000       2.048508        55.7427 
 319   0.0000       2.073429        56.4209 
 320   0.0000       2.079607        56.5890 
 321   0.0000       2.088261        56.8245 
 322   0.0000       2.106118        57.3104 
 323   0.0000       2.124725        57.8167 
 324   0.0000       2.126514        57.8654 
 325   0.0000       2.141431        58.2713 
 326   0.0000       2.143401        58.3249 
 327   0.0000       2.152562        58.5742 
 328   0.0000       2.167950        58.9929 
 329   0.0000       2.182448        59.3874 
 330   0.0000       2.227183        60.6047 
 331   0.0000       2.248277        61.1787 
 332   0.0000       2.264763        61.6273 
 333   0.0000       2.278297        61.9956 
 334   0.0000       2.292286        62.3763 
 335   0.0000       2.303249        62.6746 
 336   0.0000       2.314182        62.9721 
 337   0.0000       2.341674        63.7202 
 338   0.0000       2.353756        64.0490 
 339   0.0000       2.363704        64.3197 
 340   0.0000       2.376014        64.6546 
 341   0.0000       2.400216        65.3132 
 342   0.0000       2.419406        65.8354 
 343   0.0000       2.431016        66.1513 
 344   0.0000       2.438500        66.3550 
 345   0.0000       2.448176        66.6183 
 346   0.0000       2.461483        66.9803 
 347   0.0000       2.470635        67.2294 
 348   0.0000       2.489021        67.7297 
 349   0.0000       2.498176        67.9788 
 350   0.0000       2.509754        68.2939 
 351   0.0000       2.523449        68.6665 
 352   0.0000       2.524806        68.7035 
 353   0.0000       2.529810        68.8396 
 354   0.0000       2.544163        69.2302 
 355   0.0000       2.545259        69.2600 
 356   0.0000       2.557181        69.5844 
 357   0.0000       2.568754        69.8994 
 358   0.0000       2.573343        70.0242 
 359   0.0000       2.576776        70.1176 
 360   0.0000       2.588827        70.4456 
 361   0.0000       2.591983        70.5314 
 362   0.0000       2.606141        70.9167 
 363   0.0000       2.609804        71.0164 
 364   0.0000       2.615418        71.1691 
 365   0.0000       2.622898        71.3727 
 366   0.0000       2.629912        71.5635 
 367   0.0000       2.646893        72.0256 
 368   0.0000       2.660269        72.3896 
 369   0.0000       2.667712        72.5921 
 370   0.0000       2.669173        72.6319 
 371   0.0000       2.680203        72.9320 
 372   0.0000       2.685362        73.0724 
 373   0.0000       2.694188        73.3126 
 374   0.0000       2.695917        73.3596 
 375   0.0000       2.711244        73.7767 
 376   0.0000       2.714433        73.8635 
 377   0.0000       2.727364        74.2153 
 378   0.0000       2.739246        74.5387 
 379   0.0000       2.740277        74.5667 
 380   0.0000       2.759060        75.0778 
 381   0.0000       2.760353        75.1130 
 382   0.0000       2.771903        75.4273 
 383   0.0000       2.774154        75.4886 
 384   0.0000       2.778883        75.6173 
 385   0.0000       2.780830        75.6702 
 386   0.0000       2.787937        75.8636 
 387   0.0000       2.800032        76.1927 
 388   0.0000       2.800915        76.2168 
 389   0.0000       2.818546        76.6965 
 390   0.0000       2.819309        76.7173 
 391   0.0000       2.822433        76.8023 
 392   0.0000       2.836309        77.1799 
 393   0.0000       2.851148        77.5837 
 394   0.0000       2.851936        77.6051 
 395   0.0000       2.861215        77.8576 
 396   0.0000       2.867367        78.0250 
 397   0.0000       2.876429        78.2716 
 398   0.0000       2.899404        78.8968 
 399   0.0000       2.922144        79.5156 
 400   0.0000       2.930818        79.7516 
 401   0.0000       2.936251        79.8995 
 402   0.0000       2.941681        80.0472 
 403   0.0000       2.956982        80.4636 
 404   0.0000       2.978859        81.0589 
 405   0.0000       2.986462        81.2658 
 406   0.0000       2.989007        81.3350 
 407   0.0000       3.010044        81.9075 
 408   0.0000       3.013874        82.0117 
 409   0.0000       3.028595        82.4123 
 410   0.0000       3.029444        82.4354 
 411   0.0000       3.032436        82.5168 
 412   0.0000       3.046396        82.8967 
 413   0.0000       3.046894        82.9102 
 414   0.0000       3.052538        83.0638 
 415   0.0000       3.063251        83.3553 
 416   0.0000       3.063770        83.3694 
 417   0.0000       3.071533        83.5807 
 418   0.0000       3.073431        83.6323 
 419   0.0000       3.079607        83.8004 
 420   0.0000       3.093174        84.1695 
 421   0.0000       3.097399        84.2845 
 422   0.0000       3.101171        84.3871 
 423   0.0000       3.115191        84.7686 
 424   0.0000       3.131924        85.2240 
 425   0.0000       3.144742        85.5728 
 426   0.0000       3.153015        85.7979 
 427   0.0000       3.159677        85.9792 
 428   0.0000       3.164369        86.1068 
 429   0.0000       3.176926        86.4485 
 430   0.0000       3.179704        86.5241 
 431   0.0000       3.195328        86.9493 
 432   0.0000       3.203448        87.1702 
 433   0.0000       3.211586        87.3917 
 434   0.0000       3.211778        87.3969 
 435   0.0000       3.218396        87.5770 
 436   0.0000       3.226482        87.7970 
 437   0.0000       3.227690        87.8299 
 438   0.0000       3.243902        88.2711 
 439   0.0000       3.252834        88.5141 
 440   0.0000       3.258074        88.6567 
 441   0.0000       3.277794        89.1933 
 442   0.0000       3.286986        89.4434 
 443   0.0000       3.296486        89.7019 
 444   0.0000       3.304329        89.9154 
 445   0.0000       3.304536        89.9210 
 446   0.0000       3.308802        90.0371 
 447   0.0000       3.323421        90.4349 
 448   0.0000       3.330970        90.6403 
 449   0.0000       3.339771        90.8798 
 450   0.0000       3.344629        91.0120 
 451   0.0000       3.350567        91.1736 
 452   0.0000       3.358693        91.3947 
 453   0.0000       3.375073        91.8404 
 454   0.0000       3.386093        92.1403 
 455   0.0000       3.389426        92.2310 
 456   0.0000       3.392147        92.3050 
 457   0.0000       3.411037        92.8190 
 458   0.0000       3.415674        92.9452 
 459   0.0000       3.417807        93.0032 
 460   0.0000       3.429654        93.3256 
 461   0.0000       3.437096        93.5281 
 462   0.0000       3.447893        93.8219 
 463   0.0000       3.456580        94.0583 
 464   0.0000       3.475276        94.5671 
 465   0.0000       3.477042        94.6151 
 466   0.0000       3.484932        94.8298 
 467   0.0000       3.490200        94.9732 
 468   0.0000       3.516188        95.6803 
 469   0.0000       3.542784        96.4041 
 470   0.0000       3.552346        96.6643 
 471   0.0000       3.584512        97.5395 
 472   0.0000       3.599827        97.9563 
 473   0.0000       3.604753        98.0903 
 474   0.0000       3.618569        98.4663 
 475   0.0000       3.640660        99.0674 
 476   0.0000       3.640869        99.0731 
 477   0.0000       3.653456        99.4156 
 478   0.0000       3.674220        99.9806 
 479   0.0000       3.692109       100.4674 
 480   0.0000       3.694036       100.5198 
 481   0.0000       3.696474       100.5862 
 482   0.0000       3.761053       102.3434 
 483   0.0000       3.761487       102.3553 
 484   0.0000       3.771193       102.6194 
 485   0.0000       3.795111       103.2702 
 486   0.0000       3.814411       103.7954 
 487   0.0000       3.828446       104.1773 
 488   0.0000       3.854929       104.8980 
 489   0.0000       3.862783       105.1117 
 490   0.0000       3.881142       105.6113 
 491   0.0000       3.886207       105.7491 
 492   0.0000       3.908075       106.3441 
 493   0.0000       3.933678       107.0408 
 494   0.0000       3.951408       107.5233 
 495   0.0000       3.951925       107.5373 
 496   0.0000       3.966524       107.9346 
 497   0.0000       3.992048       108.6292 
 498   0.0000       4.021791       109.4385 
 499   0.0000       4.030419       109.6733 
 500   0.0000       4.043058       110.0172 
 501   0.0000       4.062918       110.5576 
 502   0.0000       4.076542       110.9283 
 503   0.0000       4.077747       110.9611 
 504   0.0000       4.099426       111.5511 
 505   0.0000       4.103589       111.6643 
 506   0.0000       4.117452       112.0416 
 507   0.0000       4.122153       112.1695 
 508   0.0000       4.126823       112.2966 
 509   0.0000       4.142056       112.7111 
 510   0.0000       4.144973       112.7904 
 511   0.0000       4.145210       112.7969 
 512   0.0000       4.155704       113.0825 
 513   0.0000       4.169321       113.4530 
 514   0.0000       4.188946       113.9870 
 515   0.0000       4.196420       114.1904 
 516   0.0000       4.206027       114.4518 
 517   0.0000       4.230424       115.1157 
 518   0.0000       4.268426       116.1498 
 519   0.0000       4.283946       116.5721 
 520   0.0000       4.288360       116.6922 
 521   0.0000       4.306235       117.1786 
 522   0.0000       4.326208       117.7221 
 523   0.0000       4.348454       118.3274 
 524   0.0000       4.378572       119.1470 
 525   0.0000       4.402060       119.7861 
 526   0.0000       4.489047       122.1532 
 527   0.0000       4.515753       122.8799 
 528   0.0000       4.554310       123.9291 
 529   0.0000       4.554810       123.9427 
 530   0.0000       4.561393       124.1218 
 531   0.0000       4.585681       124.7827 
 532   0.0000       4.598631       125.1351 
 533   0.0000       4.623499       125.8118 
 534   0.0000       4.630007       125.9889 
 535   0.0000       4.649266       126.5130 
 536   0.0000       4.666042       126.9694 
 537   0.0000       4.714025       128.2751 
 538   0.0000       4.728497       128.6690 
 539   0.0000       4.779388       130.0537 
 540   0.0000       4.784922       130.2044 
 541   0.0000       4.820332       131.1679 
 542   0.0000       4.826573       131.3377 
 543   0.0000       4.845056       131.8407 
 544   0.0000       4.931077       134.1814 
 545   0.0000       4.973689       135.3410 
 546   0.0000       4.997453       135.9876 
 547   0.0000       5.026978       136.7910 
 548   0.0000       5.073007       138.0435 
 549   0.0000       5.084474       138.3556 
 550   0.0000       5.107222       138.9746 
 551   0.0000       5.134084       139.7055 
 552   0.0000       5.154527       140.2618 
 553   0.0000       5.212989       141.8526 
 554   0.0000       5.220870       142.0671 
 555   0.0000       5.300515       144.2343 
 556   0.0000       5.312313       144.5554 
 557   0.0000       5.339263       145.2887 
 558   0.0000       5.358512       145.8125 
 559   0.0000       5.418960       147.4574 
 560   0.0000       5.457277       148.5000 
 561   0.0000       5.496127       149.5572 
 562   0.0000       5.529791       150.4733 
 563   0.0000       5.671583       154.3316 
 564   0.0000       5.710697       155.3960 
 565   0.0000       6.028865       164.0538 
 566   0.0000       6.253785       170.1741 
 567   0.0000       6.334224       172.3630 
 568   0.0000       6.496518       176.7792 
 569   0.0000       6.600060       179.5968 
 570   0.0000       6.693457       182.1382 
 571   0.0000       6.992225       190.2681 
 572   0.0000       7.011642       190.7965 
 573   0.0000       8.720650       237.3010 
 574   0.0000       9.316321       253.5100 
 575   0.0000       9.388887       255.4846 
 576   0.0000      20.173265       548.9425 
 577   0.0000      21.701826       590.5367 
 578   0.0000      22.018400       599.1511 
 579   0.0000      22.315675       607.2404 
 580   0.0000      22.336645       607.8110 
 581   0.0000      22.349637       608.1646 
 582   0.0000      22.389112       609.2387 
 583   0.0000      22.417256       610.0045 
 584   0.0000      22.459399       611.1513 
 585   0.0000      22.528154       613.0222 
 586   0.0000      22.592573       614.7752 
 587   0.0000      22.652598       616.4085 
 588   0.0000      22.710749       617.9909 
 589   0.0000      22.990669       625.6079 
 590   0.0000      23.051241       627.2562 
 591   0.0000      23.219313       631.8296 
 592   0.0000      43.623772      1187.0632 

                    ********************************
                    * MULLIKEN POPULATION ANALYSIS *
                    ********************************

-----------------------
MULLIKEN ATOMIC CHARGES
-----------------------
   0 C :   -0.079309
   1 C :   -0.084317
   2 C :   -0.225833
   3 C :    0.064974
   4 C :   -0.253710
   5 C :    0.133320
   6 C :    0.169235
   7 C :    0.072764
   8 H :    0.111938
   9 H :    0.116969
  10 H :    0.133256
  11 H :    0.119732
  12 S :   -0.062719
  13 O :   -0.261396
  14 C :   -0.320974
  15 C :    0.400605
  16 C :   -0.183560
  17 H :    0.117690
  18 C :   -0.148573
  19 H :    0.121549
  20 C :   -0.088269
  21 H :    0.115516
  22 C :   -0.124845
  23 H :    0.105865
  24 C :   -0.218954
  25 H :    0.124303
  26 H :    0.144741
Sum of atomic charges:   -0.0000000

--------------------------------
MULLIKEN REDUCED ORBITAL CHARGES
--------------------------------
  0 C s       :     3.212748  s :     3.212748
      pz      :     0.935505  p :     2.771919
      px      :     0.912843
      py      :     0.923571
      dz2     :     0.005317  d :     0.087717
      dxz     :     0.013084
      dyz     :     0.015514
      dx2y2   :     0.018374
      dxy     :     0.035428
      f0      :     0.001503  f :     0.006925
      f+1     :     0.000526
      f-1     :     0.000459
      f+2     :     0.001138
      f-2     :     0.000212
      f+3     :     0.001862
      f-3     :     0.001226
  1 C s       :     3.148307  s :     3.148307
      pz      :     0.975902  p :     2.846223
      px      :     0.944324
      py      :     0.925997
      dz2     :     0.003690  d :     0.082942
      dxz     :     0.006835
      dyz     :     0.018505
      dx2y2   :     0.028912
      dxy     :     0.025000
      f0      :     0.001522  f :     0.006845
      f+1     :     0.000600
      f-1     :     0.000507
      f+2     :     0.000496
      f-2     :     0.000727
      f+3     :     0.001794
      f-3     :     0.001199
  2 C s       :     3.303088  s :     3.303088
      pz      :     0.929541  p :     2.825216
      px      :     0.942691
      py      :     0.952984
      dz2     :     0.003999  d :     0.090497
      dxz     :     0.023917
      dyz     :     0.005626
      dx2y2   :     0.036691
      dxy     :     0.020265
      f0      :     0.001466  f :     0.007032
      f+1     :     0.000455
      f-1     :     0.000613
      f+2     :     0.000330
      f-2     :     0.001054
      f+3     :     0.001878
      f-3     :     0.001236
  3 C s       :     3.235101  s :     3.235101
      pz      :     0.970014  p :     2.555755
      px      :     0.794126
      py      :     0.791615
      dz2     :     0.007575  d :     0.134244
      dxz     :     0.021539
      dyz     :     0.020018
      dx2y2   :     0.039219
      dxy     :     0.045893
      f0      :     0.001792  f :     0.009927
      f+1     :     0.000640
      f-1     :     0.000531
      f+2     :     0.001160
      f-2     :     0.000640
      f+3     :     0.003244
      f-3     :     0.001920
  4 C s       :     3.337113  s :     3.337113
      pz      :     0.996410  p :     2.819518
      px      :     0.920346
      py      :     0.902762
      dz2     :     0.005520  d :     0.089979
      dxz     :     0.021615
      dyz     :     0.005546
      dx2y2   :     0.035859
      dxy     :     0.021439
      f0      :     0.001518  f :     0.007100
      f+1     :     0.000448
      f-1     :     0.000642
      f+2     :     0.000273
      f-2     :     0.001004
      f+3     :     0.001997
      f-3     :     0.001218
  5 C s       :     3.141673  s :     3.141673
      pz      :     0.947539  p :     2.570616
      px      :     0.799011
      py      :     0.824065
      dz2     :     0.006654  d :     0.144968
      dxz     :     0.030886
      dyz     :     0.026744
      dx2y2   :     0.045886
      dxy     :     0.034799
      f0      :     0.001826  f :     0.009423
      f+1     :     0.000714
      f-1     :     0.000513
      f+2     :     0.001085
      f-2     :     0.000944
      f+3     :     0.002477
      f-3     :     0.001863
  6 C s       :     3.072485  s :     3.072485
      pz      :     0.803204  p :     2.524962
      px      :     0.905408
      py      :     0.816349
      dz2     :     0.007708  d :     0.215713
      dxz     :     0.021962
      dyz     :     0.046418
      dx2y2   :     0.040290
      dxy     :     0.099335
      f0      :     0.002198  f :     0.017606
      f+1     :     0.000620
      f-1     :     0.001360
      f+2     :     0.002525
      f-2     :     0.000986
      f+3     :     0.007172
      f-3     :     0.002744
  7 C s       :     3.286619  s :     3.286619
      pz      :     1.010520  p :     2.521532
      px      :     0.779086
      py      :     0.731927
      dz2     :     0.006927  d :     0.110345
      dxz     :     0.019984
      dyz     :     0.022866
      dx2y2   :     0.036116
      dxy     :     0.024452
      f0      :     0.001698  f :     0.008740
      f+1     :     0.000532
      f-1     :     0.000719
      f+2     :     0.000939
      f-2     :     0.000716
      f+3     :     0.002642
      f-3     :     0.001495
  8 H s       :     0.866049  s :     0.866049
      pz      :     0.004912  p :     0.022013
      px      :     0.009284
      py      :     0.007817
  9 H s       :     0.860470  s :     0.860470
      pz      :     0.005190  p :     0.022562
      px      :     0.012461
      py      :     0.004910
 10 H s       :     0.844705  s :     0.844705
      pz      :     0.004612  p :     0.022040
      px      :     0.003978
      py      :     0.013450
 11 H s       :     0.858465  s :     0.858465
      pz      :     0.005088  p :     0.021803
      px      :     0.004022
      py      :     0.012694
 12 S s       :     5.793289  s :     5.793289
      pz      :     3.732385  p :    10.071911
      px      :     3.085669
      py      :     3.253857
      dz2     :     0.018840  d :     0.180605
      dxz     :     0.029744
      dyz     :     0.026058
      dx2y2   :     0.066995
      dxy     :     0.038969
      f0      :     0.001884  f :     0.016914
      f+1     :     0.001924
      f-1     :     0.001718
      f+2     :     0.002177
      f-2     :     0.000801
      f+3     :     0.003997
      f-3     :     0.004414
 13 O s       :     3.803859  s :     3.803859
      pz      :     1.346456  p :     4.425673
      px      :     1.750147
      py      :     1.329070
      dz2     :     0.002426  d :     0.030194
      dxz     :     0.000116
      dyz     :     0.010765
      dx2y2   :     0.007744
      dxy     :     0.009143
      f0      :     0.000175  f :     0.001670
      f+1     :     0.000022
      f-1     :     0.000117
      f+2     :     0.000432
      f-2     :     0.000009
      f+3     :     0.000556
      f-3     :     0.000358
 14 C s       :     3.370004  s :     3.370004
      pz      :     0.937118  p :     2.852784
      px      :     0.917864
      py      :     0.997801
      dz2     :     0.003698  d :     0.091126
      dxz     :     0.031886
      dyz     :     0.003034
      dx2y2   :     0.032180
      dxy     :     0.020327
      f0      :     0.001452  f :     0.007060
      f+1     :     0.000506
      f-1     :     0.000525
      f+2     :     0.000530
      f-2     :     0.000735
      f+3     :     0.002163
      f-3     :     0.001150
 15 C s       :     3.101623  s :     3.101623
      pz      :     0.906468  p :     2.356031
      px      :     0.723540
      py      :     0.726023
      dz2     :     0.005467  d :     0.132093
      dxz     :     0.023933
      dyz     :     0.022492
      dx2y2   :     0.040499
      dxy     :     0.039703
      f0      :     0.001721  f :     0.009647
      f+1     :     0.000595
      f-1     :     0.000500
      f+2     :     0.000927
      f-2     :     0.000942
      f+3     :     0.003337
      f-3     :     0.001625
 16 C s       :     3.307263  s :     3.307263
      pz      :     0.968443  p :     2.784220
      px      :     0.949803
      py      :     0.865974
      dz2     :     0.005637  d :     0.085346
      dxz     :     0.011786
      dyz     :     0.014988
      dx2y2   :     0.020287
      dxy     :     0.032648
      f0      :     0.001457  f :     0.006731
      f+1     :     0.000469
      f-1     :     0.000447
      f+2     :     0.000984
      f-2     :     0.000241
      f+3     :     0.001893
      f-3     :     0.001241
 17 H s       :     0.858242  s :     0.858242
      pz      :     0.005388  p :     0.024068
      px      :     0.010356
      py      :     0.008324
 18 C s       :     3.234814  s :     3.234814
      pz      :     0.960435  p :     2.817691
      px      :     0.922825
      py      :     0.934431
      dz2     :     0.005186  d :     0.089011
      dxz     :     0.022068
      dyz     :     0.005154
      dx2y2   :     0.034562
      dxy     :     0.022042
      f0      :     0.001538  f :     0.007057
      f+1     :     0.000430
      f-1     :     0.000609
      f+2     :     0.000284
      f-2     :     0.001042
      f+3     :     0.002050
      f-3     :     0.001104
 19 H s       :     0.856725  s :     0.856725
      pz      :     0.004966  p :     0.021727
      px      :     0.004029
      py      :     0.012732
 20 C s       :     3.146314  s :     3.146314
      pz      :     0.948657  p :     2.849421
      px      :     0.958316
      py      :     0.942448
      dz2     :     0.003357  d :     0.085690
      dxz     :     0.007256
      dyz     :     0.019928
      dx2y2   :     0.028529
      dxy     :     0.026619
      f0      :     0.001489  f :     0.006844
      f+1     :     0.000597
      f-1     :     0.000480
      f+2     :     0.000599
      f-2     :     0.000717
      f+3     :     0.001920
      f-3     :     0.001042
 21 H s       :     0.862112  s :     0.862112
      pz      :     0.004989  p :     0.022372
      px      :     0.012214
      py      :     0.005170
 22 C s       :     3.232809  s :     3.232809
      pz      :     0.958010  p :     2.798472
      px      :     0.927660
      py      :     0.912802
      dz2     :     0.005060  d :     0.086702
      dxz     :     0.011534
      dyz     :     0.014987
      dx2y2   :     0.019540
      dxy     :     0.035582
      f0      :     0.001532  f :     0.006861
      f+1     :     0.000535
      f-1     :     0.000447
      f+2     :     0.001067
      f-2     :     0.000212
      f+3     :     0.001936
      f-3     :     0.001132
 23 H s       :     0.872078  s :     0.872078
      pz      :     0.005009  p :     0.022057
      px      :     0.009401
      py      :     0.007648
 24 C s       :     3.294524  s :     3.294524
      pz      :     0.964712  p :     2.826408
      px      :     0.920685
      py      :     0.941011
      dz2     :     0.005705  d :     0.091015
      dxz     :     0.023959
      dyz     :     0.004620
      dx2y2   :     0.034523
      dxy     :     0.022208
      f0      :     0.001464  f :     0.007007
      f+1     :     0.000418
      f-1     :     0.000579
      f+2     :     0.000310
      f-2     :     0.001003
      f+3     :     0.002153
      f-3     :     0.001080
 25 H s       :     0.853889  s :     0.853889
      pz      :     0.004955  p :     0.021808
      px      :     0.004072
      py      :     0.012781
 26 H s       :     0.832420  s :     0.832420
      pz      :     0.004735  p :     0.022838
      px      :     0.004220
      py      :     0.013882


                     *******************************
                     * LOEWDIN POPULATION ANALYSIS *
                     *******************************

----------------------
LOEWDIN ATOMIC CHARGES
----------------------
   0 C :   -0.120755
   1 C :   -0.137494
   2 C :   -0.076299
   3 C :   -0.124644
   4 C :   -0.139970
   5 C :   -0.304078
   6 C :   -0.310138
   7 C :   -0.321552
   8 H :    0.148572
   9 H :    0.146637
  10 H :    0.157373
  11 H :    0.148640
  12 S :    0.695013
  13 O :    0.149698
  14 C :   -0.087706
  15 C :   -0.138101
  16 C :   -0.098540
  17 H :    0.141490
  18 C :   -0.136599
  19 H :    0.148274
  20 C :   -0.130137
  21 H :    0.145755
  22 C :   -0.136469
  23 H :    0.147177
  24 C :   -0.091988
  25 H :    0.152408
  26 H :    0.173433

-------------------------------
LOEWDIN REDUCED ORBITAL CHARGES
-------------------------------
  0 C s       :     2.768929  s :     2.768929
      pz      :     0.861756  p :     2.919550
      px      :     1.020801
      py      :     1.036993
      dz2     :     0.025856  d :     0.389440
      dxz     :     0.042293
      dyz     :     0.052623
      dx2y2   :     0.103282
      dxy     :     0.165387
      f0      :     0.003021  f :     0.042836
      f+1     :     0.003713
      f-1     :     0.003884
      f+2     :     0.007636
      f-2     :     0.001531
      f+3     :     0.013325
      f-3     :     0.009726
  1 C s       :     2.765474  s :     2.765474
      pz      :     0.894083  p :     2.949433
      px      :     0.999066
      py      :     1.056284
      dz2     :     0.025559  d :     0.379761
      dxz     :     0.018791
      dyz     :     0.064561
      dx2y2   :     0.145695
      dxy     :     0.125155
      f0      :     0.003159  f :     0.042826
      f+1     :     0.003372
      f-1     :     0.004319
      f+2     :     0.003492
      f-2     :     0.004895
      f+3     :     0.013550
      f-3     :     0.010041
  2 C s       :     2.759865  s :     2.759865
      pz      :     0.847055  p :     2.890950
      px      :     1.042432
      py      :     1.001462
      dz2     :     0.024992  d :     0.381987
      dxz     :     0.078165
      dyz     :     0.014284
      dx2y2   :     0.158162
      dxy     :     0.106384
      f0      :     0.003085  f :     0.043498
      f+1     :     0.004272
      f-1     :     0.003254
      f+2     :     0.002182
      f-2     :     0.007181
      f+3     :     0.013434
      f-3     :     0.010090
  3 C s       :     2.700075  s :     2.700075
      pz      :     0.868773  p :     2.861774
      px      :     0.997688
      py      :     0.995313
      dz2     :     0.037789  d :     0.504532
      dxz     :     0.062827
      dyz     :     0.063245
      dx2y2   :     0.160854
      dxy     :     0.179818
      f0      :     0.004186  f :     0.058264
      f+1     :     0.004621
      f-1     :     0.004261
      f+2     :     0.007801
      f-2     :     0.004156
      f+3     :     0.020550
      f-3     :     0.012688
  4 C s       :     2.765008  s :     2.765008
      pz      :     0.903402  p :     2.951365
      px      :     1.057435
      py      :     0.990528
      dz2     :     0.025897  d :     0.380209
      dxz     :     0.070621
      dyz     :     0.014581
      dx2y2   :     0.155922
      dxy     :     0.113188
      f0      :     0.003249  f :     0.043388
      f+1     :     0.004463
      f-1     :     0.003426
      f+2     :     0.001976
      f-2     :     0.006853
      f+3     :     0.013375
      f-3     :     0.010046
  5 C s       :     2.757961  s :     2.757961
      pz      :     0.879064  p :     2.930820
      px      :     0.995613
      py      :     1.056143
      dz2     :     0.038802  d :     0.559238
      dxz     :     0.093909
      dyz     :     0.079970
      dx2y2   :     0.183946
      dxy     :     0.162610
      f0      :     0.003800  f :     0.056059
      f+1     :     0.004224
      f-1     :     0.004324
      f+2     :     0.007672
      f-2     :     0.006086
      f+3     :     0.016358
      f-3     :     0.013594
  6 C s       :     2.737086  s :     2.737086
      pz      :     0.750060  p :     2.692726
      px      :     0.968890
      py      :     0.973777
      dz2     :     0.051622  d :     0.775275
      dxz     :     0.059226
      dyz     :     0.138110
      dx2y2   :     0.197323
      dxy     :     0.328994
      f0      :     0.006743  f :     0.105051
      f+1     :     0.003633
      f-1     :     0.010214
      f+2     :     0.017058
      f-2     :     0.006087
      f+3     :     0.043842
      f-3     :     0.017474
  7 C s       :     2.786701  s :     2.786701
      pz      :     0.930956  p :     2.969183
      px      :     1.044411
      py      :     0.993816
      dz2     :     0.039963  d :     0.515033
      dxz     :     0.058423
      dyz     :     0.084062
      dx2y2   :     0.173676
      dxy     :     0.158908
      f0      :     0.003835  f :     0.050634
      f+1     :     0.004589
      f-1     :     0.004163
      f+2     :     0.005931
      f-2     :     0.004495
      f+3     :     0.016076
      f-3     :     0.011546
  8 H s       :     0.792198  s :     0.792198
      pz      :     0.013148  p :     0.059229
      px      :     0.024819
      py      :     0.021262
  9 H s       :     0.793619  s :     0.793619
      pz      :     0.014016  p :     0.059744
      px      :     0.032019
      py      :     0.013708
 10 H s       :     0.782161  s :     0.782161
      pz      :     0.012767  p :     0.060466
      px      :     0.011572
      py      :     0.036127
 11 H s       :     0.791065  s :     0.791065
      pz      :     0.014232  p :     0.060296
      px      :     0.011818
      py      :     0.034245
 12 S s       :     5.208779  s :     5.208779
      pz      :     3.583388  p :     9.760094
      px      :     2.991676
      py      :     3.185030
      dz2     :     0.031085  d :     0.289159
      dxz     :     0.044443
      dyz     :     0.040540
      dx2y2   :     0.107572
      dxy     :     0.065519
      f0      :     0.004018  f :     0.046955
      f+1     :     0.003538
      f-1     :     0.003214
      f+2     :     0.006216
      f-2     :     0.001982
      f+3     :     0.012623
      f-3     :     0.015364
 13 O s       :     3.398336  s :     3.398336
      pz      :     1.276238  p :     4.376937
      px      :     1.612854
      py      :     1.487846
      dz2     :     0.007703  d :     0.068995
      dxz     :     0.000119
      dyz     :     0.014985
      dx2y2   :     0.024129
      dxy     :     0.022058
      f0      :     0.000467  f :     0.006034
      f+1     :     0.000119
      f-1     :     0.000905
      f+2     :     0.000835
      f-2     :     0.000022
      f+3     :     0.001938
      f-3     :     0.001748
 14 C s       :     2.762936  s :     2.762936
      pz      :     0.848315  p :     2.893342
      px      :     1.040541
      py      :     1.004485
      dz2     :     0.025481  d :     0.390588
      dxz     :     0.089836
      dyz     :     0.008811
      dx2y2   :     0.162212
      dxy     :     0.104248
      f0      :     0.003252  f :     0.040840
      f+1     :     0.004834
      f-1     :     0.002823
      f+2     :     0.002430
      f-2     :     0.005437
      f+3     :     0.013281
      f-3     :     0.008783
 15 C s       :     2.701474  s :     2.701474
      pz      :     0.840309  p :     2.857868
      px      :     0.983379
      py      :     1.034181
      dz2     :     0.033884  d :     0.521013
      dxz     :     0.066404
      dyz     :     0.075857
      dx2y2   :     0.166510
      dxy     :     0.178356
      f0      :     0.003924  f :     0.057746
      f+1     :     0.004108
      f-1     :     0.004447
      f+2     :     0.006030
      f-2     :     0.006600
      f+3     :     0.020977
      f-3     :     0.011660
 16 C s       :     2.760579  s :     2.760579
      pz      :     0.877512  p :     2.918559
      px      :     1.027634
      py      :     1.013413
      dz2     :     0.026203  d :     0.377159
      dxz     :     0.037425
      dyz     :     0.047655
      dx2y2   :     0.104833
      dxy     :     0.161043
      f0      :     0.003055  f :     0.042244
      f+1     :     0.003666
      f-1     :     0.003890
      f+2     :     0.006992
      f-2     :     0.001629
      f+3     :     0.013488
      f-3     :     0.009523
 17 H s       :     0.794170  s :     0.794170
      pz      :     0.014483  p :     0.064340
      px      :     0.027833
      py      :     0.022025
 18 C s       :     2.766124  s :     2.766124
      pz      :     0.880561  p :     2.940136
      px      :     1.067695
      py      :     0.991880
      dz2     :     0.025980  d :     0.387056
[...]
     40      -0.000050  -0.000088  -0.000046   0.000193   0.000339   0.000166
     41      -0.000000   0.000000  -0.000001  -0.000000  -0.000001   0.000001
     42       0.000293   0.000060   0.000087  -0.000020   0.000075  -0.000039
     43       0.002177   0.000070   0.001285  -0.000646  -0.000009  -0.000259
     44      -0.000000   0.000000  -0.000000  -0.000000  -0.000000   0.000000
     45       0.001911  -0.000053   0.001257  -0.001352   0.000605  -0.000037
     46      -0.000180   0.000005  -0.000251   0.000555  -0.000281   0.000064
     47       0.000000   0.000000  -0.000000  -0.000000  -0.000000   0.000000
     48       0.002946   0.000040  -0.008125  -0.007223   0.002577   0.000537
     49      -0.003701  -0.000020   0.008074   0.008615  -0.003274  -0.000401
     50      -0.000000   0.000000   0.000001   0.000000  -0.000000   0.000000
     51      -0.043464  -0.000741   0.111556   0.105246  -0.039311  -0.005698
     52       0.038733   0.000567  -0.095790  -0.092585   0.034881   0.004760
     53       0.000004   0.000000  -0.000008  -0.000009   0.000003   0.000001
     54       0.003733   0.000212  -0.009444  -0.006508   0.002935  -0.000224
     55       0.021979   0.001083  -0.054358  -0.047196   0.020928  -0.001114
     56       0.000002   0.000000  -0.000004  -0.000004   0.000002   0.000000
     57      -0.041185  -0.002096   0.101015   0.082816  -0.036795   0.002097
     58      -0.263091  -0.013179   0.641388   0.536368  -0.237918   0.012869
     59      -0.000020  -0.000001   0.000050   0.000041  -0.000018   0.000001
     60      -0.028562  -0.001717   0.040626  -0.029780   0.013327   0.000471
     61      -0.011011  -0.000645   0.016642  -0.008498   0.003750   0.000301
     62      -0.000002  -0.000000   0.000002  -0.000002   0.000001   0.000000
     63       0.343589   0.020169  -0.486130   0.332406  -0.149262  -0.005377
     64       0.132457   0.007743  -0.188463   0.124677  -0.055947  -0.002270
     65       0.000020   0.000001  -0.000028   0.000019  -0.000009  -0.000000
     66       0.030812   0.000846  -0.003309   0.036659  -0.017360   0.001720
     67      -0.026594  -0.000599  -0.000033  -0.027237   0.012960  -0.001383
     68      -0.000000   0.000000  -0.000000   0.000000  -0.000000   0.000000
     69      -0.380423  -0.009449   0.023767  -0.408561   0.193461  -0.019267
     70       0.312905   0.007612  -0.016293   0.330561  -0.156628   0.015774
     71       0.000001   0.000000  -0.000001   0.000002  -0.000001   0.000000
     72       0.009013  -0.000130   0.007078  -0.005543   0.002682  -0.000248
     73       0.062046  -0.000823   0.045039  -0.028274   0.013528  -0.001028
     74       0.000002   0.000000   0.000002  -0.000001   0.000000   0.000000
     75      -0.113949   0.001485  -0.081975   0.051140  -0.024559   0.001933
     76      -0.725635   0.009083  -0.518861   0.316596  -0.151783   0.011553
     77      -0.000032   0.000001  -0.000023   0.000014  -0.000007   0.000001
     78      -0.003114   0.000189  -0.002372   0.001382  -0.000628   0.000107
     79      -0.027345  -0.001382  -0.015843   0.006744  -0.000108   0.002840
     80       0.000004   0.000000   0.000002  -0.000001  -0.000001   0.000001
                  78         79         80    
      0       0.000371  -0.024982  -0.000313
      1      -0.000187   0.023175   0.000225
      2      -0.000000   0.000004  -0.000001
      3      -0.001221  -0.060867  -0.000216
      4      -0.000379  -0.020109  -0.000082
      5       0.000000   0.000016  -0.000001
      6      -0.000101  -0.005994  -0.000022
      7      -0.000794  -0.048357  -0.000327
      8       0.000000   0.000006  -0.000001
      9       0.000005   0.001671  -0.000007
     10       0.000006   0.000268  -0.000040
     11       0.000008   0.000005  -0.000007
     12      -0.000319   0.004809   0.000185
     13      -0.001609   0.019398   0.001004
     14       0.000000  -0.000002  -0.000001
     15      -0.000056   0.000918   0.000233
     16       0.000029  -0.000214   0.000038
     17      -0.000003  -0.000004   0.000009
     18       0.000051   0.000180   0.000083
     19       0.000113  -0.000553   0.000075
     20      -0.000007  -0.000005   0.000007
     21      -0.000044  -0.000231  -0.000470
     22      -0.000032   0.000034  -0.000163
     23       0.000000   0.000000  -0.000001
     24      -0.003663   0.280885   0.003394
     25       0.002962  -0.241844  -0.002762
     26       0.000001  -0.000047  -0.000001
     27       0.013829   0.677054   0.002229
     28       0.004664   0.232079   0.000838
     29      -0.000003  -0.000171  -0.000002
     30       0.001429   0.089663   0.000821
     31       0.008677   0.534743   0.004267
     32      -0.000001  -0.000065  -0.000001
     33       0.003267  -0.040203  -0.002007
     34       0.018308  -0.215623  -0.011042
     35      -0.000002   0.000024   0.000000
     36      -0.000041  -0.000006   0.000160
     37      -0.000006   0.000014   0.000034
     38       0.000000   0.000000  -0.000000
     39      -0.000005  -0.000041  -0.000009
     40      -0.000060   0.000283  -0.000028
     41       0.000000   0.000000  -0.000001
     42       0.000041   0.000041   0.000309
     43       0.000401  -0.000500   0.000612
     44       0.000000   0.000000  -0.000000
     45       0.000583  -0.000035   0.001341
     46      -0.000928  -0.000001   0.002710
     47       0.000000   0.000000  -0.000000
     48      -0.013599  -0.000386   0.063044
     49       0.012936   0.000300  -0.052968
     50       0.000001   0.000000  -0.000005
     51       0.170348   0.004279  -0.721744
     52      -0.146607  -0.003526   0.613042
     53      -0.000013  -0.000000   0.000052
     54      -0.001248   0.000058  -0.005788
     55      -0.024456   0.000472  -0.025032
     56      -0.000002   0.000000  -0.000002
     57       0.038431  -0.000785   0.043454
     58       0.265919  -0.005059   0.267554
     59       0.000020  -0.000000   0.000021
     60      -0.053962   0.000498  -0.010267
     61      -0.022168   0.000191  -0.002774
     62      -0.000003   0.000000  -0.000001
     63       0.605042  -0.005431   0.103617
     64       0.234920  -0.002077   0.038492
     65       0.000035  -0.000000   0.000006
     66      -0.043365   0.000441  -0.006305
     67       0.036955  -0.000377   0.005657
     68       0.000001   0.000000  -0.000000
     69       0.489829  -0.005017   0.072012
     70      -0.402371   0.004065  -0.059389
     71      -0.000002   0.000000  -0.000000
     72       0.005425  -0.000110   0.000049
     73       0.019298  -0.000544   0.003058
     74       0.000001   0.000000  -0.000000
     75      -0.036191   0.000995  -0.004180
     76      -0.210257   0.006154  -0.029994
     77      -0.000008   0.000001  -0.000002
     78      -0.000714   0.000170  -0.001313
     79      -0.003664   0.005705  -0.011281
     80       0.000001  -0.000001   0.000001


-----------
IR SPECTRUM  
-----------

 Mode    freq (cm**-1)   T**2         TX         TY         TZ
-------------------------------------------------------------------
   8:        49.58    0.409092  (  0.301013   0.564343   0.000579)
   9:        56.61    0.971746  (  0.000799  -0.004780   0.985760)
  10:        91.72    0.185906  ( -0.019797  -0.003874   0.430696)
  11:       183.78    0.040129  (  0.036195  -0.005360   0.196953)
  12:       192.79    0.409457  (  0.486408   0.415769   0.001097)
  13:       237.60    1.389462  (  0.016118  -0.001529   1.178643)
  14:       240.65    0.975354  (  0.466819  -0.870306  -0.001114)
  15:       272.90    6.347173  (  2.517420   0.098846  -0.000289)
  16:       357.57    0.023271  (  0.002130   0.000311   0.152532)
  17:       372.28    0.668015  ( -0.010347  -0.001208  -0.817255)
  18:       410.50    9.376957  ( -0.043387   0.000663  -3.061874)
  19:       419.40    9.379937  (  2.841760   1.142047  -0.007963)
  20:       470.85    0.048875  ( -0.012791   0.020610  -0.219742)
  21:       474.31    6.239367  ( -2.494998   0.119778   0.002415)
  22:       500.54   21.892897  (  0.006872   0.008196  -4.678972)
  23:       524.54   21.127172  (  4.570056   0.491690  -0.000652)
  24:       550.54   10.290433  ( -3.098006   0.832339  -0.001823)
  25:       604.56    0.531903  (  0.234510   0.690585  -0.000644)
  26:       630.20   45.341083  (  0.000805   0.000886  -6.733579)
  27:       651.02    2.549213  (  0.723640  -1.423217   0.003286)
  28:       658.66   24.789117  ( -0.030415   0.002662  -4.978773)
  29:       678.88    2.526127  ( -0.984398  -1.247785   0.010969)
  30:       686.51   45.947984  (  0.016000  -0.016127  -6.778456)
  31:       708.98   13.130723  ( -3.582486   0.544528  -0.002904)
  32:       718.40    8.000483  (  0.007787   0.010171  -2.828483)
  33:       752.61    0.420496  (  0.006976   0.001444  -0.648418)
  34:       762.43    1.838066  (  0.048532   0.022426   1.354698)
  35:       804.01    0.539680  (  0.730034  -0.082037  -0.000971)
  36:       812.09    0.985027  (  0.023421   0.014568   0.992102)
  37:       834.20    0.174551  (  0.017488   0.005073  -0.417396)
  38:       865.62    1.098220  (  0.010216   0.003726  -1.047904)
  39:       882.46    0.360476  (  0.011651   0.003404   0.600274)
  40:       888.99    7.586317  (  0.019989   0.003370  -2.754252)
  41:       895.85    0.746397  ( -0.012473   0.002062   0.863850)
  42:       898.28    3.821102  ( -1.472381   1.285764  -0.002811)
  43:       901.04    2.188237  (  0.006458   0.004595  -1.479248)
  44:       994.44    1.423680  ( -1.191893   0.055412   0.000012)
  45:      1020.78   48.610177  (  6.969132   0.203410  -0.000345)
  46:      1030.54   30.081791  ( -5.463519  -0.481411  -0.000105)
  47:      1034.63   72.863069  (  8.461997   1.121461   0.000113)
  48:      1060.20  117.182801  ( 10.665471   1.852171  -0.000793)
  49:      1083.90   22.672935  ( -4.480285   1.612447   0.000083)
  50:      1104.00    0.231141  ( -0.480770   0.000882   0.000320)
  51:      1137.89    0.520529  ( -0.547078   0.470356  -0.000050)
  52:      1140.40   10.881088  (  3.004408  -1.361844  -0.000059)
  53:      1162.65    4.443796  (  2.105296  -0.107356   0.000069)
  54:      1199.07   17.983283  (  3.795973  -1.890468   0.000178)
  55:      1216.29    8.764052  ( -2.597105   1.420949  -0.000169)
  56:      1261.33   98.510838  (  9.762164  -1.791926  -0.000570)
  57:      1283.35    0.416200  (  0.298783   0.571776  -0.000665)
  58:      1306.05    6.215697  ( -1.745297  -1.780347   0.000400)
  59:      1380.78    6.923697  ( -2.619387  -0.250014   0.000134)
  60:      1385.28   14.190980  (  3.016105   2.257010  -0.000516)
  61:      1440.90   30.824243  ( -5.529136   0.502892   0.001263)
  62:      1442.71   46.613471  ( -5.685926  -3.779381   0.000745)
  63:      1449.74   12.453570  (  3.528822  -0.031425  -0.000573)
  64:      1485.30   16.024639  ( -3.949831  -0.650746   0.000276)
  65:      1585.61   23.438883  (  3.358929   3.486614  -0.000268)
  66:      1591.64   31.481565  (  3.977313   3.957594  -0.000161)
  67:      1603.52   51.232372  (  4.906153  -5.211721  -0.000634)
  68:      1611.69   71.278199  (  8.359736   1.180258  -0.000765)
  69:      1632.48  136.935560  ( 10.639391   4.872261  -0.000658)
  70:      1745.92  195.242329  (  3.246332  13.590572  -0.000251)
  71:      3136.75    0.061288  (  0.245259  -0.033698   0.000208)
  72:      3175.50    3.404569  (  1.483573   1.097078   0.000057)
  73:      3180.62    0.139355  (  0.339608   0.154990  -0.000234)
  74:      3181.70    0.024063  (  0.015135  -0.154383  -0.000026)
  75:      3192.04    7.634993  (  0.509031  -2.715857  -0.000306)
  76:      3192.53    5.020680  (  0.517619   2.180080  -0.000117)
  77:      3197.59    9.062632  (  1.118815  -2.794796   0.000025)
  78:      3203.63   23.284549  ( -4.822417   0.169826  -0.000098)
  79:      3208.84   19.446093  ( -4.345802   0.748396   0.000461)
  80:      3217.45    0.762538  (  0.305302  -0.818125   0.000384)

The first frequency considered to be a vibration is 8
The total number of vibrations considered is 73


--------------------------
THERMOCHEMISTRY AT 298.15K
--------------------------

Temperature         ... 298.15 K
Pressure            ... 1.00 atm
Total Mass          ... 238.30 AMU

Throughout the following assumptions are being made:
  (1) The electronic state is orbitally nondegenerate
  (2) There are no thermally accessible electronically excited states
  (3) Hindered rotations indicated by low frequency modes are not
      treated as such but are treated as vibrations and this may
      cause some error
  (4) All equations used are the standard statistical mechanics
      equations for an ideal gas
  (5) All vibrations are strictly harmonic

freq.      49.58  E(vib)   ...       0.52 
freq.      56.61  E(vib)   ...       0.52 
freq.      91.72  E(vib)   ...       0.47 
freq.     183.78  E(vib)   ...       0.37 
freq.     192.79  E(vib)   ...       0.36 
freq.     237.60  E(vib)   ...       0.32 
freq.     240.65  E(vib)   ...       0.31 
freq.     272.90  E(vib)   ...       0.29 
freq.     357.57  E(vib)   ...       0.22 
freq.     372.28  E(vib)   ...       0.21 
freq.     410.50  E(vib)   ...       0.19 
freq.     419.40  E(vib)   ...       0.18 
freq.     470.85  E(vib)   ...       0.15 
freq.     474.31  E(vib)   ...       0.15 
freq.     500.54  E(vib)   ...       0.14 
freq.     524.54  E(vib)   ...       0.13 
freq.     550.54  E(vib)   ...       0.12 
freq.     604.56  E(vib)   ...       0.10 
freq.     630.20  E(vib)   ...       0.09 
freq.     651.02  E(vib)   ...       0.08 
freq.     658.66  E(vib)   ...       0.08 
freq.     678.88  E(vib)   ...       0.08 
freq.     686.51  E(vib)   ...       0.07 
freq.     708.98  E(vib)   ...       0.07 
freq.     718.40  E(vib)   ...       0.07 
freq.     752.61  E(vib)   ...       0.06 
freq.     762.43  E(vib)   ...       0.06 
freq.     804.01  E(vib)   ...       0.05 
freq.     812.09  E(vib)   ...       0.05 
freq.     834.20  E(vib)   ...       0.04 
freq.     865.62  E(vib)   ...       0.04 
freq.     882.46  E(vib)   ...       0.04 
freq.     888.99  E(vib)   ...       0.04 
freq.     895.85  E(vib)   ...       0.03 
freq.     898.28  E(vib)   ...       0.03 
freq.     901.04  E(vib)   ...       0.03 
freq.     994.44  E(vib)   ...       0.02 
freq.    1020.78  E(vib)   ...       0.02 
freq.    1030.54  E(vib)   ...       0.02 
freq.    1034.63  E(vib)   ...       0.02 
freq.    1060.20  E(vib)   ...       0.02 
freq.    1083.90  E(vib)   ...       0.02 
freq.    1104.00  E(vib)   ...       0.02 
freq.    1137.89  E(vib)   ...       0.01 
freq.    1140.40  E(vib)   ...       0.01 
freq.    1162.65  E(vib)   ...       0.01 
freq.    1199.07  E(vib)   ...       0.01 
freq.    1216.29  E(vib)   ...       0.01 
freq.    1261.33  E(vib)   ...       0.01 
freq.    1283.35  E(vib)   ...       0.01 
freq.    1306.05  E(vib)   ...       0.01 
freq.    1380.78  E(vib)   ...       0.01 
freq.    1385.28  E(vib)   ...       0.00 
freq.    1440.90  E(vib)   ...       0.00 
freq.    1442.71  E(vib)   ...       0.00 
freq.    1449.74  E(vib)   ...       0.00 
freq.    1485.30  E(vib)   ...       0.00 
freq.    1585.61  E(vib)   ...       0.00 
freq.    1591.64  E(vib)   ...       0.00 
freq.    1603.52  E(vib)   ...       0.00 
freq.    1611.69  E(vib)   ...       0.00 
freq.    1632.48  E(vib)   ...       0.00 
freq.    1745.92  E(vib)   ...       0.00 
freq.    3136.75  E(vib)   ...       0.00 
freq.    3175.50  E(vib)   ...       0.00 
freq.    3180.62  E(vib)   ...       0.00 
freq.    3181.70  E(vib)   ...       0.00 
freq.    3192.04  E(vib)   ...       0.00 
freq.    3192.53  E(vib)   ...       0.00 
freq.    3197.59  E(vib)   ...       0.00 
freq.    3203.63  E(vib)   ...       0.00 
freq.    3208.84  E(vib)   ...       0.00 
freq.    3217.45  E(vib)   ...       0.00 

------------
INNER ENERGY
------------

The inner energy is: U= E(el) + E(ZPE) + E(vib) + E(rot) + E(trans)
    E(el)   - is the total energy from the electronic structure calculation
              = E(kin-el) + E(nuc-el) + E(el-el) + E(nuc-nuc)
    E(ZPE)  - the the zero temperature vibrational energy from the frequency calculation
    E(vib)  - the the finite temperature correction to E(ZPE) due to population
              of excited vibrational states
    E(rot)  - is the rotational thermal energy
    E(trans)- is the translational thermal energy

Summary of contributions to the inner energy U:
Electronic energy                ...  -1050.30611129 Eh
Zero point energy                ...      0.19892652 Eh     124.83 kcal/mol
Thermal vibrational correction   ...      0.00958421 Eh       6.01 kcal/mol
Thermal rotational correction    ...      0.00141627 Eh       0.89 kcal/mol
Thermal translational correction ...      0.00141627 Eh       0.89 kcal/mol
-----------------------------------------------------------------------
Total thermal energy                  -1050.09476802 Eh


Summary of corrections to the electronic energy:
(perhaps to be used in another calculation)
Total thermal correction                  0.01241676 Eh       7.79 kcal/mol
Non-thermal (ZPE) correction              0.19892652 Eh     124.83 kcal/mol
-----------------------------------------------------------------------
Total correction                          0.21134328 Eh     132.62 kcal/mol


--------
ENTHALPY
--------

The enthalpy is H = U + kB*T
                kB is Boltzmann's constant
Total free energy                 ...  -1050.09476802 Eh 
Thermal Enthalpy correction       ...      0.00094421 Eh       0.59 kcal/mol
-----------------------------------------------------------------------
Total Enthalpy                    ...  -1050.09382381 Eh


Note: Rotational entropy computed according to Herzberg 
Infrared and Raman Spectra, Chapter V,1, Van Nostrand Reinhold, 1945 
Point Group:  C1, Symmetry Number:   1  
Rotational constants in cm-1:     0.044290     0.007164     0.006167 

Vibrational entropy computed according to the QRRHO of S. Grimme
Chem.Eur.J. 2012 18 9955


-------
ENTROPY
-------

The entropy contributions are T*S = T*(S(el)+S(vib)+S(rot)+S(trans))
     S(el)   - electronic entropy
     S(vib)  - vibrational entropy
     S(rot)  - rotational entropy
     S(trans)- translational entropy
The entropies will be listed as mutliplied by the temperature to get
units of energy

Electronic entropy                ...      0.00000000 Eh      0.00 kcal/mol
Vibrational entropy               ...      0.01574629 Eh      9.88 kcal/mol
Rotational entropy                ...      0.01571608 Eh      9.86 kcal/mol
Translational entropy             ...      0.02010110 Eh     12.61 kcal/mol
-----------------------------------------------------------------------
Final entropy term                ...      0.05156347 Eh     32.36 kcal/mol


-------------------
GIBBS FREE ENTHALPY
-------------------

The Gibbs free enthalpy is G = H - T*S

Total enthalpy                    ...  -1050.09382381 Eh 
Total entropy correction          ...     -0.05156347 Eh    -32.36 kcal/mol
-----------------------------------------------------------------------
Final Gibbs free enthalpy         ...  -1050.14538727 Eh

For completeness - the Gibbs free enthalpy minus the electronic energy
G-E(el)                           ...      0.16072402 Eh    100.86 kcal/mol


Total Time for Numerical Frequencies  :      2227.971 sec
Time for Reference State(s)           :        27.651 sec
Time for Displacements                :      2184.952 sec

Timings for individual modules:

Sum of individual times         ...      106.824 sec (=   1.780 min)
GTO integral calculation        ...        9.501 sec (=   0.158 min)   8.9 %
SCF iterations                  ...       78.098 sec (=   1.302 min)  73.1 %
SCF Gradient evaluation         ...       19.225 sec (=   0.320 min)  18.0 %
                             ****ORCA TERMINATED NORMALLY****
TOTAL RUN TIME: 0 days 0 hours 38 minutes 35 seconds 289 msec
